# vtk DataFile Version 3.0
Triangulation generated with deal.II
ASCII
DATASET UNSTRUCTURED_GRID
POINTS 96 double
580.35 500 0
556.816 556.816 0
500 580.35 0
443.184 556.816 0
419.65 500 0
443.184 443.184 0
500 419.65 0
556.816 443.184 0
563.971 500 0
545.234 545.234 0
500 563.971 0
454.766 545.234 0
436.029 500 0
454.766 454.766 0
500 436.029 0
545.234 454.766 0
548.82 500 0
534.521 534.521 0
500 548.82 0
465.479 534.521 0
451.18 500 0
465.479 465.479 0
500 451.18 0
534.521 465.479 0
535.783 500 0
525.302 525.302 0
500 535.783 0
474.698 525.302 0
464.217 500 0
474.698 474.698 0
500 464.217 0
525.302 474.698 0
525.245 500 0
517.851 517.851 0
500 525.245 0
482.149 517.851 0
474.755 500 0
482.149 482.149 0
500 474.755 0
517.851 482.149 0
517.149 500 0
512.126 512.126 0
500 517.149 0
487.874 512.126 0
482.851 500 0
487.874 487.874 0
500 482.851 0
512.126 487.874 0
511.169 500 0
507.898 507.898 0
500 511.169 0
492.102 507.898 0
488.831 500 0
492.102 492.102 0
500 488.831 0
507.898 492.102 0
506.879 500 0
504.864 504.864 0
500 506.879 0
495.136 504.864 0
493.121 500 0
495.136 495.136 0
500 493.121 0
504.864 495.136 0
503.865 500 0
502.733 502.733 0
500 503.865 0
497.267 502.733 0
496.135 500 0
497.267 497.267 0
500 496.135 0
502.733 497.267 0
501.779 500 0
501.258 501.258 0
500 501.779 0
498.742 501.258 0
498.221 500 0
498.742 498.742 0
500 498.221 0
501.258 498.742 0
500.35 500 0
500.247 500.247 0
500 500.35 0
499.753 500.247 0
499.65 500 0
499.753 499.753 0
500 499.65 0
500.247 499.753 0
600 500 0
600 600 0
500 600 0
400 600 0
400 500 0
400 400 0
500 400 0
600 400 0

CELLS 264 968
4 0 1 9 8
4 1 2 10 9
4 2 3 11 10
4 3 4 12 11
4 4 5 13 12
4 5 6 14 13
4 6 7 15 14
4 7 0 8 15
4 8 9 17 16
4 9 10 18 17
4 10 11 19 18
4 11 12 20 19
4 12 13 21 20
4 13 14 22 21
4 14 15 23 22
4 15 8 16 23
4 16 17 25 24
4 17 18 26 25
4 18 19 27 26
4 19 20 28 27
4 20 21 29 28
4 21 22 30 29
4 22 23 31 30
4 23 16 24 31
4 24 25 33 32
4 25 26 34 33
4 26 27 35 34
4 27 28 36 35
4 28 29 37 36
4 29 30 38 37
4 30 31 39 38
4 31 24 32 39
4 32 33 41 40
4 33 34 42 41
4 34 35 43 42
4 35 36 44 43
4 36 37 45 44
4 37 38 46 45
4 38 39 47 46
4 39 32 40 47
4 40 41 49 48
4 41 42 50 49
4 42 43 51 50
4 43 44 52 51
4 44 45 53 52
4 45 46 54 53
4 46 47 55 54
4 47 40 48 55
4 48 49 57 56
4 49 50 58 57
4 50 51 59 58
4 51 52 60 59
4 52 53 61 60
4 53 54 62 61
4 54 55 63 62
4 55 48 56 63
4 56 57 65 64
4 57 58 66 65
4 58 59 67 66
4 59 60 68 67
4 60 61 69 68
4 61 62 70 69
4 62 63 71 70
4 63 56 64 71
4 64 65 73 72
4 65 66 74 73
4 66 67 75 74
4 67 68 76 75
4 68 69 77 76
4 69 70 78 77
4 70 71 79 78
4 71 64 72 79
4 72 73 81 80
4 73 74 82 81
4 74 75 83 82
4 75 76 84 83
4 76 77 85 84
4 77 78 86 85
4 78 79 87 86
4 79 72 80 87
4 88 89 1 0
4 89 90 2 1
4 90 91 3 2
4 91 92 4 3
4 92 93 5 4
4 93 94 6 5
4 94 95 7 6
4 95 88 0 7
2 0 1
2 0 8
2 1 2
2 1 9
2 2 3
2 2 10
2 3 4
2 3 11
2 4 5
2 4 12
2 5 6
2 5 13
2 6 7
2 6 14
2 7 0
2 7 15
2 8 9
2 8 16
2 9 10
2 9 17
2 10 11
2 10 18
2 11 12
2 11 19
2 12 13
2 12 20
2 13 14
2 13 21
2 14 15
2 14 22
2 15 8
2 15 23
2 16 17
2 16 24
2 17 18
2 17 25
2 18 19
2 18 26
2 19 20
2 19 27
2 20 21
2 20 28
2 21 22
2 21 29
2 22 23
2 22 30
2 23 16
2 23 31
2 24 25
2 24 32
2 25 26
2 25 33
2 26 27
2 26 34
2 27 28
2 27 35
2 28 29
2 28 36
2 29 30
2 29 37
2 30 31
2 30 38
2 31 24
2 31 39
2 32 33
2 32 40
2 33 34
2 33 41
2 34 35
2 34 42
2 35 36
2 35 43
2 36 37
2 36 44
2 37 38
2 37 45
2 38 39
2 38 46
2 39 32
2 39 47
2 40 41
2 40 48
2 41 42
2 41 49
2 42 43
2 42 50
2 43 44
2 43 51
2 44 45
2 44 52
2 45 46
2 45 53
2 46 47
2 46 54
2 47 40
2 47 55
2 48 49
2 48 56
2 49 50
2 49 57
2 50 51
2 50 58
2 51 52
2 51 59
2 52 53
2 52 60
2 53 54
2 53 61
2 54 55
2 54 62
2 55 48
2 55 63
2 56 57
2 56 64
2 57 58
2 57 65
2 58 59
2 58 66
2 59 60
2 59 67
2 60 61
2 60 68
2 61 62
2 61 69
2 62 63
2 62 70
2 63 56
2 63 71
2 64 65
2 64 72
2 65 66
2 65 73
2 66 67
2 66 74
2 67 68
2 67 75
2 68 69
2 68 76
2 69 70
2 69 77
2 70 71
2 70 78
2 71 64
2 71 79
2 72 73
2 72 80
2 73 74
2 73 81
2 74 75
2 74 82
2 75 76
2 75 83
2 76 77
2 76 84
2 77 78
2 77 85
2 78 79
2 78 86
2 79 72
2 79 87
2 80 81
2 81 82
2 82 83
2 83 84
2 84 85
2 85 86
2 86 87
2 87 80
2 88 0
2 89 1
2 90 2
2 91 3
2 92 4
2 93 5
2 94 6
2 95 7

CELL_TYPES 264
9 9 9 9 9 9 9 9 9 9 9 9 9 9 9 9 9 9 9 9 9 9 9 9 9 9 9 9 9 9 9 9 9 9 9 9 9 9 9 9 9 9 9 9 9 9 9 9 9 9 9 9 9 9 9 9 9 9 9 9 9 9 9 9 9 9 9 9 9 9 9 9 9 9 9 9 9 9 9 9 9 9 9 9 9 9 9 9 
3 3 3 3 3 3 3 3 3 3 3 3 3 3 3 3 3 3 3 3 3 3 3 3 3 3 3 3 3 3 3 3 3 3 3 3 3 3 3 3 3 3 3 3 3 3 3 3 3 3 3 3 3 3 3 3 3 3 3 3 3 3 3 3 3 3 3 3 3 3 3 3 3 3 3 3 3 3 3 3 3 3 3 3 3 3 3 3 3 3 3 3 3 3 3 3 3 3 3 3 3 3 3 3 3 3 3 3 3 3 3 3 3 3 3 3 3 3 3 3 3 3 3 3 3 3 3 3 3 3 3 3 3 3 3 3 3 3 3 3 3 3 3 3 3 3 3 3 3 3 3 3 3 3 3 3 3 3 3 3 3 3 3 3 3 3 3 3 3 3 3 3 3 3 3 3 


CELL_DATA 264
SCALARS MaterialID int 1
LOOKUP_TABLE default
0 0 0 0 0 0 0 0 0 0 0 0 0 0 0 0 0 0 0 0 0 0 0 0 0 0 0 0 0 0 0 0 0 0 0 0 0 0 0 0 0 0 0 0 0 0 0 0 0 0 0 0 0 0 0 0 0 0 0 0 0 0 0 0 0 0 0 0 0 0 0 0 0 0 0 0 0 0 0 0 0 0 0 0 0 0 0 0 
-1 -1 -1 -1 -1 -1 -1 -1 -1 -1 -1 -1 -1 -1 -1 -1 -1 -1 -1 -1 -1 -1 -1 -1 -1 -1 -1 -1 -1 -1 -1 -1 -1 -1 -1 -1 -1 -1 -1 -1 -1 -1 -1 -1 -1 -1 -1 -1 -1 -1 -1 -1 -1 -1 -1 -1 -1 -1 -1 -1 -1 -1 -1 -1 -1 -1 -1 -1 -1 -1 -1 -1 -1 -1 -1 -1 -1 -1 -1 -1 -1 -1 -1 -1 -1 -1 -1 -1 -1 -1 -1 -1 -1 -1 -1 -1 -1 -1 -1 -1 -1 -1 -1 -1 -1 -1 -1 -1 -1 -1 -1 -1 -1 -1 -1 -1 -1 -1 -1 -1 -1 -1 -1 -1 -1 -1 -1 -1 -1 -1 -1 -1 -1 -1 -1 -1 -1 -1 -1 -1 -1 -1 -1 -1 -1 -1 -1 -1 -1 -1 -1 -1 -1 -1 -1 -1 -1 -1 -1 -1 0 0 0 0 0 0 0 0 -1 -1 -1 -1 -1 -1 -1 -1 


SCALARS ManifoldID int 1
LOOKUP_TABLE default
0 0 0 0 0 0 0 0 0 0 0 0 0 0 0 0 0 0 0 0 0 0 0 0 0 0 0 0 0 0 0 0 0 0 0 0 0 0 0 0 0 0 0 0 0 0 0 0 0 0 0 0 0 0 0 0 0 0 0 0 0 0 0 0 0 0 0 0 0 0 0 0 0 0 0 0 0 0 0 0 1 1 1 1 1 1 1 1 
0 0 0 0 0 0 0 0 0 0 0 0 0 0 0 0 0 0 0 0 0 0 0 0 0 0 0 0 0 0 0 0 0 0 0 0 0 0 0 0 0 0 0 0 0 0 0 0 0 0 0 0 0 0 0 0 0 0 0 0 0 0 0 0 0 0 0 0 0 0 0 0 0 0 0 0 0 0 0 0 0 0 0 0 0 0 0 0 0 0 0 0 0 0 0 0 0 0 0 0 0 0 0 0 0 0 0 0 0 0 0 0 0 0 0 0 0 0 0 0 0 0 0 0 0 0 0 0 0 0 0 0 0 0 0 0 0 0 0 0 0 0 0 0 0 0 0 0 0 0 0 0 0 0 0 0 0 0 0 0 0 0 0 0 0 0 0 0 1 1 1 1 1 1 1 1 

