# vtk DataFile Version 3.0
Triangulation generated with deal.II
ASCII
DATASET UNSTRUCTURED_GRID
POINTS 115 double
0 0 0
0.1 0 0
0.2 0 0
0.3 0 0
0.4 0 0
0.5 0 0
0.6 0 0
0.7 0 0
0.8 0 0
0.9 0 0
1 0 0
1.1 0 0
1.2 0 0
1.3 0 0
1.4 0 0
1.5 0 0
1.6 0 0
1.7 0 0
1.8 0 0
1.9 0 0
2 0 0
2.1 0 0
2.2 0 0
0 0.1025 0
0.1 0.1025 0
0.2 0.1025 0
0.3 0.1025 0
0.4 0.1025 0
0.5 0.1025 0
0.6 0.1025 0
0.7 0.1025 0
0.8 0.1025 0
0.9 0.1025 0
1 0.1025 0
1.1 0.1025 0
1.2 0.1025 0
1.3 0.1025 0
1.4 0.1025 0
1.5 0.1025 0
1.6 0.1025 0
1.7 0.1025 0
1.8 0.1025 0
1.9 0.1025 0
2 0.1025 0
2.1 0.1025 0
2.2 0.1025 0
0 0.205 0
0.1 0.205 0
0.2 0.205 0
0.3 0.205 0
0.4 0.205 0
0.5 0.205 0
0.6 0.205 0
0.7 0.205 0
0.8 0.205 0
0.9 0.205 0
1 0.205 0
1.1 0.205 0
1.2 0.205 0
1.3 0.205 0
1.4 0.205 0
1.5 0.205 0
1.6 0.205 0
1.7 0.205 0
1.8 0.205 0
1.9 0.205 0
2 0.205 0
2.1 0.205 0
2.2 0.205 0
0 0.3075 0
0.1 0.3075 0
0.2 0.3075 0
0.3 0.3075 0
0.4 0.3075 0
0.5 0.3075 0
0.6 0.3075 0
0.7 0.3075 0
0.8 0.3075 0
0.9 0.3075 0
1 0.3075 0
1.1 0.3075 0
1.2 0.3075 0
1.3 0.3075 0
1.4 0.3075 0
1.5 0.3075 0
1.6 0.3075 0
1.7 0.3075 0
1.8 0.3075 0
1.9 0.3075 0
2 0.3075 0
2.1 0.3075 0
2.2 0.3075 0
0 0.41 0
0.1 0.41 0
0.2 0.41 0
0.3 0.41 0
0.4 0.41 0
0.5 0.41 0
0.6 0.41 0
0.7 0.41 0
0.8 0.41 0
0.9 0.41 0
1 0.41 0
1.1 0.41 0
1.2 0.41 0
1.3 0.41 0
1.4 0.41 0
1.5 0.41 0
1.6 0.41 0
1.7 0.41 0
1.8 0.41 0
1.9 0.41 0
2 0.41 0
2.1 0.41 0
2.2 0.41 0

CELLS 88 440
4 0 1 24 23
4 1 2 25 24
4 2 3 26 25
4 3 4 27 26
4 4 5 28 27
4 5 6 29 28
4 6 7 30 29
4 7 8 31 30
4 8 9 32 31
4 9 10 33 32
4 10 11 34 33
4 11 12 35 34
4 12 13 36 35
4 13 14 37 36
4 14 15 38 37
4 15 16 39 38
4 16 17 40 39
4 17 18 41 40
4 18 19 42 41
4 19 20 43 42
4 20 21 44 43
4 21 22 45 44
4 23 24 47 46
4 24 25 48 47
4 25 26 49 48
4 26 27 50 49
4 27 28 51 50
4 28 29 52 51
4 29 30 53 52
4 30 31 54 53
4 31 32 55 54
4 32 33 56 55
4 33 34 57 56
4 34 35 58 57
4 35 36 59 58
4 36 37 60 59
4 37 38 61 60
4 38 39 62 61
4 39 40 63 62
4 40 41 64 63
4 41 42 65 64
4 42 43 66 65
4 43 44 67 66
4 44 45 68 67
4 46 47 70 69
4 47 48 71 70
4 48 49 72 71
4 49 50 73 72
4 50 51 74 73
4 51 52 75 74
4 52 53 76 75
4 53 54 77 76
4 54 55 78 77
4 55 56 79 78
4 56 57 80 79
4 57 58 81 80
4 58 59 82 81
4 59 60 83 82
4 60 61 84 83
4 61 62 85 84
4 62 63 86 85
4 63 64 87 86
4 64 65 88 87
4 65 66 89 88
4 66 67 90 89
4 67 68 91 90
4 69 70 93 92
4 70 71 94 93
4 71 72 95 94
4 72 73 96 95
4 73 74 97 96
4 74 75 98 97
4 75 76 99 98
4 76 77 100 99
4 77 78 101 100
4 78 79 102 101
4 79 80 103 102
4 80 81 104 103
4 81 82 105 104
4 82 83 106 105
4 83 84 107 106
4 84 85 108 107
4 85 86 109 108
4 86 87 110 109
4 87 88 111 110
4 88 89 112 111
4 89 90 113 112
4 90 91 114 113

CELL_TYPES 88
9 9 9 9 9 9 9 9 9 9 9 9 9 9 9 9 9 9 9 9 9 9 9 9 9 9 9 9 9 9 9 9 9 9 9 9 9 9 9 9 9 9 9 9 9 9 9 9 9 9 9 9 9 9 9 9 9 9 9 9 9 9 9 9 9 9 9 9 9 9 9 9 9 9 9 9 9 9 9 9 9 9 9 9 9 9 9 9 



CELL_DATA 88
SCALARS MaterialID int 1
LOOKUP_TABLE default
0 0 0 0 0 0 0 0 0 0 0 0 0 0 0 0 0 0 0 0 0 0 0 0 0 0 0 0 0 0 0 0 0 0 0 0 0 0 0 0 0 0 0 0 0 0 0 0 0 0 0 0 0 0 0 0 0 0 0 0 0 0 0 0 0 0 0 0 0 0 0 0 0 0 0 0 0 0 0 0 0 0 0 0 0 0 0 0 



SCALARS ManifoldID int 1
LOOKUP_TABLE default
-1 -1 -1 -1 -1 -1 -1 -1 -1 -1 -1 -1 -1 -1 -1 -1 -1 -1 -1 -1 -1 -1 -1 -1 -1 -1 -1 -1 -1 -1 -1 -1 -1 -1 -1 -1 -1 -1 -1 -1 -1 -1 -1 -1 -1 -1 -1 -1 -1 -1 -1 -1 -1 -1 -1 -1 -1 -1 -1 -1 -1 -1 -1 -1 -1 -1 -1 -1 -1 -1 -1 -1 -1 -1 -1 -1 -1 -1 -1 -1 -1 -1 -1 -1 -1 -1 -1 -1 


