# vtk DataFile Version 3.0
Triangulation generated with deal.II
ASCII
DATASET UNSTRUCTURED_GRID
POINTS 1760 double
0 0 0
20 0 0
40 0 0
60 0 0
80 0 0
100 0 0
120 0 0
140 0 0
160 0 0
180 0 0
200 0 0
220 0 0
240 0 0
260 0 0
280 0 0
300 0 0
320 0 0
340 0 0
360 0 0
380 0 0
400 0 0
420 0 0
440 0 0
460 0 0
480 0 0
500 0 0
520 0 0
540 0 0
560 0 0
580 0 0
600 0 0
620 0 0
640 0 0
660 0 0
680 0 0
700 0 0
720 0 0
740 0 0
760 0 0
780 0 0
800 0 0
820 0 0
840 0 0
860 0 0
880 0 0
900 0 0
920 0 0
940 0 0
960 0 0
980 0 0
1000 0 0
0 20 0
20 20 0
40 20 0
60 20 0
80 20 0
100 20 0
120 20 0
140 20 0
160 20 0
180 20 0
200 20 0
220 20 0
240 20 0
260 20 0
280 20 0
300 20 0
320 20 0
340 20 0
360 20 0
380 20 0
400 20 0
420 20 0
440 20 0
460 20 0
480 20 0
500 20 0
520 20 0
540 20 0
560 20 0
580 20 0
600 20 0
620 20 0
640 20 0
660 20 0
680 20 0
700 20 0
720 20 0
740 20 0
760 20 0
780 20 0
800 20 0
820 20 0
840 20 0
860 20 0
880 20 0
900 20 0
920 20 0
940 20 0
960 20 0
980 20 0
1000 20 0
0 40 0
20 40 0
40 40 0
60 40 0
80 40 0
100 40 0
120 40 0
140 40 0
160 40 0
180 40 0
200 40 0
220 40 0
240 40 0
260 40 0
280 40 0
300 40 0
320 40 0
340 40 0
360 40 0
380 40 0
400 40 0
420 40 0
440 40 0
460 40 0
480 40 0
500 40 0
520 40 0
540 40 0
560 40 0
580 40 0
600 40 0
620 40 0
640 40 0
660 40 0
680 40 0
700 40 0
720 40 0
740 40 0
760 40 0
780 40 0
800 40 0
820 40 0
840 40 0
860 40 0
880 40 0
900 40 0
920 40 0
940 40 0
960 40 0
980 40 0
1000 40 0
0 60 0
20 60 0
40 60 0
60 60 0
80 60 0
100 60 0
120 60 0
140 60 0
160 60 0
180 60 0
200 60 0
220 60 0
240 60 0
260 60 0
280 60 0
300 60 0
320 60 0
340 60 0
360 60 0
380 60 0
400 60 0
420 60 0
440 60 0
460 60 0
480 60 0
500 60 0
520 60 0
540 60 0
560 60 0
580 60 0
600 60 0
620 60 0
640 60 0
660 60 0
680 60 0
700 60 0
720 60 0
740 60 0
760 60 0
780 60 0
800 60 0
820 60 0
840 60 0
860 60 0
880 60 0
900 60 0
920 60 0
940 60 0
960 60 0
980 60 0
1000 60 0
0 80 0
20 80 0
40 80 0
60 80 0
80 80 0
100 80 0
120 80 0
140 80 0
160 80 0
180 80 0
200 80 0
220 80 0
240 80 0
260 80 0
280 80 0
300 80 0
320 80 0
340 80 0
360 80 0
380 80 0
400 80 0
420 80 0
440 80 0
460 80 0
480 80 0
500 80 0
520 80 0
540 80 0
560 80 0
580 80 0
600 80 0
620 80 0
640 80 0
660 80 0
680 80 0
700 80 0
720 80 0
740 80 0
760 80 0
780 80 0
800 80 0
820 80 0
840 80 0
860 80 0
880 80 0
900 80 0
920 80 0
940 80 0
960 80 0
980 80 0
1000 80 0
0 100 0
20 100 0
40 100 0
60 100 0
80 100 0
100 100 0
120 100 0
140 100 0
160 100 0
180 100 0
200 100 0
220 100 0
240 100 0
260 100 0
280 100 0
300 100 0
320 100 0
340 100 0
360 100 0
380 100 0
400 100 0
420 100 0
440 100 0
460 100 0
480 100 0
500 100 0
520 100 0
540 100 0
560 100 0
580 100 0
600 100 0
620 100 0
640 100 0
660 100 0
680 100 0
700 100 0
720 100 0
740 100 0
760 100 0
780 100 0
800 100 0
820 100 0
840 100 0
860 100 0
880 100 0
900 100 0
920 100 0
940 100 0
960 100 0
980 100 0
1000 100 0
0 120 0
20 120 0
40 120 0
60 120 0
80 120 0
100 120 0
120 120 0
140 120 0
160 120 0
180 120 0
200 120 0
220 120 0
240 120 0
260 120 0
280 120 0
300 120 0
320 120 0
340 120 0
360 120 0
380 120 0
400 120 0
420 120 0
440 120 0
460 120 0
480 120 0
500 120 0
520 120 0
540 120 0
560 120 0
580 120 0
600 120 0
620 120 0
640 120 0
660 120 0
680 120 0
700 120 0
720 120 0
740 120 0
760 120 0
780 120 0
800 120 0
820 120 0
840 120 0
860 120 0
880 120 0
900 120 0
920 120 0
940 120 0
960 120 0
980 120 0
1000 120 0
0 140 0
20 140 0
40 140 0
60 140 0
80 140 0
100 140 0
120 140 0
140 140 0
160 140 0
180 140 0
200 140 0
220 140 0
240 140 0
260 140 0
280 140 0
300 140 0
320 140 0
340 140 0
360 140 0
380 140 0
400 140 0
420 140 0
440 140 0
460 140 0
480 140 0
500 140 0
520 140 0
540 140 0
560 140 0
580 140 0
600 140 0
620 140 0
640 140 0
660 140 0
680 140 0
700 140 0
720 140 0
740 140 0
760 140 0
780 140 0
800 140 0
820 140 0
840 140 0
860 140 0
880 140 0
900 140 0
920 140 0
940 140 0
960 140 0
980 140 0
1000 140 0
0 160 0
20 160 0
40 160 0
60 160 0
80 160 0
100 160 0
120 160 0
140 160 0
160 160 0
180 160 0
200 160 0
220 160 0
240 160 0
260 160 0
280 160 0
300 160 0
320 160 0
340 160 0
360 160 0
380 160 0
400 160 0
420 160 0
440 160 0
460 160 0
480 160 0
500 160 0
520 160 0
540 160 0
560 160 0
580 160 0
600 160 0
620 160 0
640 160 0
660 160 0
680 160 0
700 160 0
720 160 0
740 160 0
760 160 0
780 160 0
800 160 0
820 160 0
840 160 0
860 160 0
880 160 0
900 160 0
920 160 0
940 160 0
960 160 0
980 160 0
1000 160 0
0 180 0
20 180 0
40 180 0
60 180 0
80 180 0
100 180 0
120 180 0
140 180 0
160 180 0
180 180 0
200 180 0
220 180 0
240 180 0
260 180 0
280 180 0
300 180 0
320 180 0
340 180 0
360 180 0
380 180 0
400 180 0
420 180 0
440 180 0
460 180 0
480 180 0
500 180 0
520 180 0
540 180 0
560 180 0
580 180 0
600 180 0
620 180 0
640 180 0
660 180 0
680 180 0
700 180 0
720 180 0
740 180 0
760 180 0
780 180 0
800 180 0
820 180 0
840 180 0
860 180 0
880 180 0
900 180 0
920 180 0
940 180 0
960 180 0
980 180 0
1000 180 0
0 200 0
20 200 0
40 200 0
60 200 0
80 200 0
100 200 0
120 200 0
140 200 0
160 200 0
180 200 0
200 200 0
220 200 0
240 200 0
260 200 0
280 200 0
300 200 0
320 200 0
340 200 0
360 200 0
380 200 0
400 200 0
420 200 0
440 200 0
460 200 0
480 200 0
500 200 0
520 200 0
540 200 0
560 200 0
580 200 0
600 200 0
620 200 0
640 200 0
660 200 0
680 200 0
700 200 0
720 200 0
740 200 0
760 200 0
780 200 0
800 200 0
820 200 0
840 200 0
860 200 0
880 200 0
900 200 0
920 200 0
940 200 0
960 200 0
980 200 0
1000 200 0
0 220 0
20 220 0
40 220 0
60 220 0
80 220 0
100 220 0
120 220 0
140 220 0
160 220 0
180 220 0
200 220 0
800 220 0
820 220 0
840 220 0
860 220 0
880 220 0
900 220 0
920 220 0
940 220 0
960 220 0
980 220 0
1000 220 0
0 240 0
20 240 0
40 240 0
60 240 0
80 240 0
100 240 0
120 240 0
140 240 0
160 240 0
180 240 0
200 240 0
800 240 0
820 240 0
840 240 0
860 240 0
880 240 0
900 240 0
920 240 0
940 240 0
960 240 0
980 240 0
1000 240 0
0 260 0
20 260 0
40 260 0
60 260 0
80 260 0
100 260 0
120 260 0
140 260 0
160 260 0
180 260 0
200 260 0
800 260 0
820 260 0
840 260 0
860 260 0
880 260 0
900 260 0
920 260 0
940 260 0
960 260 0
980 260 0
1000 260 0
0 280 0
20 280 0
40 280 0
60 280 0
80 280 0
100 280 0
120 280 0
140 280 0
160 280 0
180 280 0
200 280 0
800 280 0
820 280 0
840 280 0
860 280 0
880 280 0
900 280 0
920 280 0
940 280 0
960 280 0
980 280 0
1000 280 0
0 300 0
20 300 0
40 300 0
60 300 0
80 300 0
100 300 0
120 300 0
140 300 0
160 300 0
180 300 0
200 300 0
800 300 0
820 300 0
840 300 0
860 300 0
880 300 0
900 300 0
920 300 0
940 300 0
960 300 0
980 300 0
1000 300 0
0 320 0
20 320 0
40 320 0
60 320 0
80 320 0
100 320 0
120 320 0
140 320 0
160 320 0
180 320 0
200 320 0
800 320 0
820 320 0
840 320 0
860 320 0
880 320 0
900 320 0
920 320 0
940 320 0
960 320 0
980 320 0
1000 320 0
0 340 0
20 340 0
40 340 0
60 340 0
80 340 0
100 340 0
120 340 0
140 340 0
160 340 0
180 340 0
200 340 0
800 340 0
820 340 0
840 340 0
860 340 0
880 340 0
900 340 0
920 340 0
940 340 0
960 340 0
980 340 0
1000 340 0
0 360 0
20 360 0
40 360 0
60 360 0
80 360 0
100 360 0
120 360 0
140 360 0
160 360 0
180 360 0
200 360 0
800 360 0
820 360 0
840 360 0
860 360 0
880 360 0
900 360 0
920 360 0
940 360 0
960 360 0
980 360 0
1000 360 0
0 380 0
20 380 0
40 380 0
60 380 0
80 380 0
100 380 0
120 380 0
140 380 0
160 380 0
180 380 0
200 380 0
800 380 0
820 380 0
840 380 0
860 380 0
880 380 0
900 380 0
920 380 0
940 380 0
960 380 0
980 380 0
1000 380 0
0 400 0
20 400 0
40 400 0
60 400 0
80 400 0
100 400 0
120 400 0
140 400 0
160 400 0
180 400 0
200 400 0
800 400 0
820 400 0
840 400 0
860 400 0
880 400 0
900 400 0
920 400 0
940 400 0
960 400 0
980 400 0
1000 400 0
0 420 0
20 420 0
40 420 0
60 420 0
80 420 0
100 420 0
120 420 0
140 420 0
160 420 0
180 420 0
200 420 0
800 420 0
820 420 0
840 420 0
860 420 0
880 420 0
900 420 0
920 420 0
940 420 0
960 420 0
980 420 0
1000 420 0
0 440 0
20 440 0
40 440 0
60 440 0
80 440 0
100 440 0
120 440 0
140 440 0
160 440 0
180 440 0
200 440 0
800 440 0
820 440 0
840 440 0
860 440 0
880 440 0
900 440 0
920 440 0
940 440 0
960 440 0
980 440 0
1000 440 0
0 460 0
20 460 0
40 460 0
60 460 0
80 460 0
100 460 0
120 460 0
140 460 0
160 460 0
180 460 0
200 460 0
800 460 0
820 460 0
840 460 0
860 460 0
880 460 0
900 460 0
920 460 0
940 460 0
960 460 0
980 460 0
1000 460 0
0 480 0
20 480 0
40 480 0
60 480 0
80 480 0
100 480 0
120 480 0
140 480 0
160 480 0
180 480 0
200 480 0
800 480 0
820 480 0
840 480 0
860 480 0
880 480 0
900 480 0
920 480 0
940 480 0
960 480 0
980 480 0
1000 480 0
0 500 0
20 500 0
40 500 0
60 500 0
80 500 0
100 500 0
120 500 0
140 500 0
160 500 0
180 500 0
200 500 0
800 500 0
820 500 0
840 500 0
860 500 0
880 500 0
900 500 0
920 500 0
940 500 0
960 500 0
980 500 0
1000 500 0
0 520 0
20 520 0
40 520 0
60 520 0
80 520 0
100 520 0
120 520 0
140 520 0
160 520 0
180 520 0
200 520 0
800 520 0
820 520 0
840 520 0
860 520 0
880 520 0
900 520 0
920 520 0
940 520 0
960 520 0
980 520 0
1000 520 0
0 540 0
20 540 0
40 540 0
60 540 0
80 540 0
100 540 0
120 540 0
140 540 0
160 540 0
180 540 0
200 540 0
800 540 0
820 540 0
840 540 0
860 540 0
880 540 0
900 540 0
920 540 0
940 540 0
960 540 0
980 540 0
1000 540 0
0 560 0
20 560 0
40 560 0
60 560 0
80 560 0
100 560 0
120 560 0
140 560 0
160 560 0
180 560 0
200 560 0
800 560 0
820 560 0
840 560 0
860 560 0
880 560 0
900 560 0
920 560 0
940 560 0
960 560 0
980 560 0
1000 560 0
0 580 0
20 580 0
40 580 0
60 580 0
80 580 0
100 580 0
120 580 0
140 580 0
160 580 0
180 580 0
200 580 0
800 580 0
820 580 0
840 580 0
860 580 0
880 580 0
900 580 0
920 580 0
940 580 0
960 580 0
980 580 0
1000 580 0
0 600 0
20 600 0
40 600 0
60 600 0
80 600 0
100 600 0
120 600 0
140 600 0
160 600 0
180 600 0
200 600 0
800 600 0
820 600 0
840 600 0
860 600 0
880 600 0
900 600 0
920 600 0
940 600 0
960 600 0
980 600 0
1000 600 0
0 620 0
20 620 0
40 620 0
60 620 0
80 620 0
100 620 0
120 620 0
140 620 0
160 620 0
180 620 0
200 620 0
800 620 0
820 620 0
840 620 0
860 620 0
880 620 0
900 620 0
920 620 0
940 620 0
960 620 0
980 620 0
1000 620 0
0 640 0
20 640 0
40 640 0
60 640 0
80 640 0
100 640 0
120 640 0
140 640 0
160 640 0
180 640 0
200 640 0
800 640 0
[...]
CELL_DATA 1600
SCALARS MaterialID int 1
LOOKUP_TABLE default
0 0 0 0 0 0 0 0 0 0 0 0 0 0 0 0 0 0 0 0 0 0 0 0 0 0 0 0 0 0 0 0 0 0 0 0 0 0 0 0 0 0 0 0 0 0 0 0 0 0 0 0 0 0 0 0 0 0 0 0 0 0 0 0 0 0 0 0 0 0 0 0 0 0 0 0 0 0 0 0 0 0 0 0 0 0 0 0 0 0 0 0 0 0 0 0 0 0 0 0 0 0 0 0 0 0 0 0 0 0 0 0 0 0 0 0 0 0 0 0 0 0 0 0 0 0 0 0 0 0 0 0 0 0 0 0 0 0 0 0 0 0 0 0 0 0 0 0 0 0 0 0 0 0 0 0 0 0 0 0 0 0 0 0 0 0 0 0 0 0 0 0 0 0 0 0 0 0 0 0 0 0 0 0 0 0 0 0 0 0 0 0 0 0 0 0 0 0 0 0 0 0 0 0 0 0 0 0 0 0 0 0 0 0 0 0 0 0 0 0 0 0 0 0 0 0 0 0 0 0 0 0 0 0 0 0 0 0 0 0 0 0 0 0 0 0 0 0 0 0 0 0 0 0 0 0 0 0 0 0 0 0 0 0 0 0 0 0 0 0 0 0 0 0 0 0 0 0 0 0 0 0 0 0 0 0 0 0 0 0 0 0 0 0 0 0 0 0 0 0 0 0 0 0 0 0 0 0 0 0 0 0 0 0 0 0 0 0 0 0 0 0 0 0 0 0 0 0 0 0 0 0 0 0 0 0 0 0 0 0 0 0 0 0 0 0 0 0 0 0 0 0 0 0 0 0 0 0 0 0 0 0 0 0 0 0 0 0 0 0 0 0 0 0 0 0 0 0 0 0 0 0 0 0 0 0 0 0 0 0 0 0 0 0 0 0 0 0 0 0 0 0 0 0 0 0 0 0 0 0 0 0 0 0 0 0 0 0 0 0 0 0 0 0 0 0 0 0 0 0 0 0 0 0 0 0 0 0 0 0 0 0 0 0 0 0 0 0 0 0 0 0 0 0 0 0 0 0 0 0 0 0 0 0 0 0 0 0 0 0 0 0 0 0 0 0 0 0 0 0 0 0 0 0 0 0 0 0 0 0 0 0 0 0 0 0 0 0 0 0 0 0 0 0 0 0 0 0 0 0 0 0 0 0 0 0 0 0 0 0 0 0 0 0 0 0 0 0 0 0 0 0 0 0 0 0 0 0 0 0 0 0 0 0 0 0 0 0 0 0 0 0 0 0 0 0 0 0 0 0 0 0 0 0 0 0 0 0 0 0 0 0 0 0 0 0 0 0 0 0 0 0 0 0 0 0 0 0 0 0 0 0 0 0 0 0 0 0 0 0 0 0 0 0 0 0 0 0 0 0 0 0 0 0 0 0 0 0 0 0 0 0 0 0 0 0 0 0 0 0 0 0 0 0 0 0 0 0 0 0 0 0 0 0 0 0 0 0 0 0 0 0 0 0 0 0 0 0 0 0 0 0 0 0 0 0 0 0 0 0 0 0 0 0 0 0 0 0 0 0 0 0 0 0 0 0 0 0 0 0 0 0 0 0 0 0 0 0 0 0 0 0 0 0 0 0 0 0 0 0 0 0 0 0 0 0 0 0 0 0 0 0 0 0 0 0 0 0 0 0 0 0 0 0 0 0 0 0 0 0 0 0 0 0 0 0 0 0 0 0 0 0 0 0 0 0 0 0 0 0 0 0 0 0 0 0 0 0 0 0 0 0 0 0 0 0 0 0 0 0 0 0 0 0 0 0 0 0 0 0 0 0 0 0 0 0 0 0 0 0 0 0 0 0 0 0 0 0 0 0 0 0 0 0 0 0 0 0 0 0 0 0 0 0 0 0 0 0 0 0 0 0 0 0 0 0 0 0 0 0 0 0 0 0 0 0 0 0 0 0 0 0 0 0 0 0 0 0 0 0 0 0 0 0 0 0 0 0 0 0 0 0 0 0 0 0 0 0 0 0 0 0 0 0 0 0 0 0 0 0 0 0 0 0 0 0 0 0 0 0 0 0 0 0 0 0 0 0 0 0 0 0 0 0 0 0 0 0 0 0 0 0 0 0 0 0 0 0 0 0 0 0 0 0 0 0 0 0 0 0 0 0 0 0 0 0 0 0 0 0 0 0 0 0 0 0 0 0 0 0 0 0 0 0 0 0 0 0 0 0 0 0 0 0 0 0 0 0 0 0 0 0 0 0 0 0 0 0 0 0 0 0 0 0 0 0 0 0 0 0 0 0 0 0 0 0 0 0 0 0 0 0 0 0 0 0 0 0 0 0 0 0 0 0 0 0 0 0 0 0 0 0 0 0 0 0 0 0 0 0 0 0 0 0 0 0 0 0 0 0 0 0 0 0 0 0 0 0 0 0 0 0 0 0 0 0 0 0 0 0 0 0 0 0 0 0 0 0 0 0 0 0 0 0 0 0 0 0 0 0 0 0 0 0 0 0 0 0 0 0 0 0 0 0 0 0 0 0 0 0 0 0 0 0 0 0 0 0 0 0 0 0 0 0 0 0 0 0 0 0 0 0 0 0 0 0 0 0 0 0 0 0 0 0 0 0 0 0 0 0 0 0 0 0 0 0 0 0 0 0 0 0 0 0 0 0 0 0 0 0 0 0 0 0 0 0 0 0 0 0 0 0 0 0 0 0 0 0 0 0 0 0 0 0 0 0 0 0 0 0 0 0 0 0 0 0 0 0 0 0 0 0 0 0 0 0 0 0 0 0 0 0 0 0 0 0 0 0 0 0 0 0 0 0 0 0 0 0 0 0 0 0 0 0 0 0 0 0 0 0 0 0 0 0 0 0 0 0 0 0 0 0 0 0 0 0 0 0 0 0 0 0 0 0 0 0 0 0 0 0 0 0 0 0 0 0 0 0 0 0 0 0 0 0 0 0 0 0 0 0 0 0 0 0 0 0 0 0 0 0 0 0 0 0 0 0 0 0 0 0 0 0 0 0 0 0 0 0 0 0 0 0 0 0 0 0 0 0 0 0 0 0 0 0 0 0 0 0 0 0 0 0 0 0 0 0 0 0 0 0 0 0 0 0 0 0 0 0 0 0 0 0 0 0 0 0 0 0 0 0 0 0 0 0 0 0 0 0 0 0 0 0 0 0 0 0 0 0 0 0 0 0 0 0 0 0 0 0 0 0 0 0 0 0 0 0 0 0 0 0 0 0 0 0 0 0 0 0 0 0 0 0 0 0 0 0 0 0 0 0 0 0 0 0 0 0 0 0 0 0 0 0 0 0 0 0 0 0 0 0 0 0 0 0 0 0 0 0 0 0 0 0 0 0 0 0 0 0 0 0 0 0 0 0 0 0 0 0 0 0 0 0 0 0 0 0 0 0 0 0 0 0 0 0 0 0 0 0 0 0 0 0 0 0 0 0 0 0 0 0 0 0 0 0 0 0 0 0 0 0 0 0 0 0 0 0 0 0 0 0 0 0 0 0 0 0 0 0 0 0 0 0 0 0 0 0 0 0 0 0 0 0 0 0 0 0 0 0 0 0 0 0 0 0 0 0 0 0 0 0 0 0 0 0 0 0 0 0 0 0 0 0 0 0 0 0 0 0 0 0 



SCALARS ManifoldID int 1
LOOKUP_TABLE default
-1 -1 -1 -1 -1 -1 -1 -1 -1 -1 -1 -1 -1 -1 -1 -1 -1 -1 -1 -1 -1 -1 -1 -1 -1 -1 -1 -1 -1 -1 -1 -1 -1 -1 -1 -1 -1 -1 -1 -1 -1 -1 -1 -1 -1 -1 -1 -1 -1 -1 -1 -1 -1 -1 -1 -1 -1 -1 -1 -1 -1 -1 -1 -1 -1 -1 -1 -1 -1 -1 -1 -1 -1 -1 -1 -1 -1 -1 -1 -1 -1 -1 -1 -1 -1 -1 -1 -1 -1 -1 -1 -1 -1 -1 -1 -1 -1 -1 -1 -1 -1 -1 -1 -1 -1 -1 -1 -1 -1 -1 -1 -1 -1 -1 -1 -1 -1 -1 -1 -1 -1 -1 -1 -1 -1 -1 -1 -1 -1 -1 -1 -1 -1 -1 -1 -1 -1 -1 -1 -1 -1 -1 -1 -1 -1 -1 -1 -1 -1 -1 -1 -1 -1 -1 -1 -1 -1 -1 -1 -1 -1 -1 -1 -1 -1 -1 -1 -1 -1 -1 -1 -1 -1 -1 -1 -1 -1 -1 -1 -1 -1 -1 -1 -1 -1 -1 -1 -1 -1 -1 -1 -1 -1 -1 -1 -1 -1 -1 -1 -1 -1 -1 -1 -1 -1 -1 -1 -1 -1 -1 -1 -1 -1 -1 -1 -1 -1 -1 -1 -1 -1 -1 -1 -1 -1 -1 -1 -1 -1 -1 -1 -1 -1 -1 -1 -1 -1 -1 -1 -1 -1 -1 -1 -1 -1 -1 -1 -1 -1 -1 -1 -1 -1 -1 -1 -1 -1 -1 -1 -1 -1 -1 -1 -1 -1 -1 -1 -1 -1 -1 -1 -1 -1 -1 -1 -1 -1 -1 -1 -1 -1 -1 -1 -1 -1 -1 -1 -1 -1 -1 -1 -1 -1 -1 -1 -1 -1 -1 -1 -1 -1 -1 -1 -1 -1 -1 -1 -1 -1 -1 -1 -1 -1 -1 -1 -1 -1 -1 -1 -1 -1 -1 -1 -1 -1 -1 -1 -1 -1 -1 -1 -1 -1 -1 -1 -1 -1 -1 -1 -1 -1 -1 -1 -1 -1 -1 -1 -1 -1 -1 -1 -1 -1 -1 -1 -1 -1 -1 -1 -1 -1 -1 -1 -1 -1 -1 -1 -1 -1 -1 -1 -1 -1 -1 -1 -1 -1 -1 -1 -1 -1 -1 -1 -1 -1 -1 -1 -1 -1 -1 -1 -1 -1 -1 -1 -1 -1 -1 -1 -1 -1 -1 -1 -1 -1 -1 -1 -1 -1 -1 -1 -1 -1 -1 -1 -1 -1 -1 -1 -1 -1 -1 -1 -1 -1 -1 -1 -1 -1 -1 -1 -1 -1 -1 -1 -1 -1 -1 -1 -1 -1 -1 -1 -1 -1 -1 -1 -1 -1 -1 -1 -1 -1 -1 -1 -1 -1 -1 -1 -1 -1 -1 -1 -1 -1 -1 -1 -1 -1 -1 -1 -1 -1 -1 -1 -1 -1 -1 -1 -1 -1 -1 -1 -1 -1 -1 -1 -1 -1 -1 -1 -1 -1 -1 -1 -1 -1 -1 -1 -1 -1 -1 -1 -1 -1 -1 -1 -1 -1 -1 -1 -1 -1 -1 -1 -1 -1 -1 -1 -1 -1 -1 -1 -1 -1 -1 -1 -1 -1 -1 -1 -1 -1 -1 -1 -1 -1 -1 -1 -1 -1 -1 -1 -1 -1 -1 -1 -1 -1 -1 -1 -1 -1 -1 -1 -1 -1 -1 -1 -1 -1 -1 -1 -1 -1 -1 -1 -1 -1 -1 -1 -1 -1 -1 -1 -1 -1 -1 -1 -1 -1 -1 -1 -1 -1 -1 -1 -1 -1 -1 -1 -1 -1 -1 -1 -1 -1 -1 -1 -1 -1 -1 -1 -1 -1 -1 -1 -1 -1 -1 -1 -1 -1 -1 -1 -1 -1 -1 -1 -1 -1 -1 -1 -1 -1 -1 -1 -1 -1 -1 -1 -1 -1 -1 -1 -1 -1 -1 -1 -1 -1 -1 -1 -1 -1 -1 -1 -1 -1 -1 -1 -1 -1 -1 -1 -1 -1 -1 -1 -1 -1 -1 -1 -1 -1 -1 -1 -1 -1 -1 -1 -1 -1 -1 -1 -1 -1 -1 -1 -1 -1 -1 -1 -1 -1 -1 -1 -1 -1 -1 -1 -1 -1 -1 -1 -1 -1 -1 -1 -1 -1 -1 -1 -1 -1 -1 -1 -1 -1 -1 -1 -1 -1 -1 -1 -1 -1 -1 -1 -1 -1 -1 -1 -1 -1 -1 -1 -1 -1 -1 -1 -1 -1 -1 -1 -1 -1 -1 -1 -1 -1 -1 -1 -1 -1 -1 -1 -1 -1 -1 -1 -1 -1 -1 -1 -1 -1 -1 -1 -1 -1 -1 -1 -1 -1 -1 -1 -1 -1 -1 -1 -1 -1 -1 -1 -1 -1 -1 -1 -1 -1 -1 -1 -1 -1 -1 -1 -1 -1 -1 -1 -1 -1 -1 -1 -1 -1 -1 -1 -1 -1 -1 -1 -1 -1 -1 -1 -1 -1 -1 -1 -1 -1 -1 -1 -1 -1 -1 -1 -1 -1 -1 -1 -1 -1 -1 -1 -1 -1 -1 -1 -1 -1 -1 -1 -1 -1 -1 -1 -1 -1 -1 -1 -1 -1 -1 -1 -1 -1 -1 -1 -1 -1 -1 -1 -1 -1 -1 -1 -1 -1 -1 -1 -1 -1 -1 -1 -1 -1 -1 -1 -1 -1 -1 -1 -1 -1 -1 -1 -1 -1 -1 -1 -1 -1 -1 -1 -1 -1 -1 -1 -1 -1 -1 -1 -1 -1 -1 -1 -1 -1 -1 -1 -1 -1 -1 -1 -1 -1 -1 -1 -1 -1 -1 -1 -1 -1 -1 -1 -1 -1 -1 -1 -1 -1 -1 -1 -1 -1 -1 -1 -1 -1 -1 -1 -1 -1 -1 -1 -1 -1 -1 -1 -1 -1 -1 -1 -1 -1 -1 -1 -1 -1 -1 -1 -1 -1 -1 -1 -1 -1 -1 -1 -1 -1 -1 -1 -1 -1 -1 -1 -1 -1 -1 -1 -1 -1 -1 -1 -1 -1 -1 -1 -1 -1 -1 -1 -1 -1 -1 -1 -1 -1 -1 -1 -1 -1 -1 -1 -1 -1 -1 -1 -1 -1 -1 -1 -1 -1 -1 -1 -1 -1 -1 -1 -1 -1 -1 -1 -1 -1 -1 -1 -1 -1 -1 -1 -1 -1 -1 -1 -1 -1 -1 -1 -1 -1 -1 -1 -1 -1 -1 -1 -1 -1 -1 -1 -1 -1 -1 -1 -1 -1 -1 -1 -1 -1 -1 -1 -1 -1 -1 -1 -1 -1 -1 -1 -1 -1 -1 -1 -1 -1 -1 -1 -1 -1 -1 -1 -1 -1 -1 -1 -1 -1 -1 -1 -1 -1 -1 -1 -1 -1 -1 -1 -1 -1 -1 -1 -1 -1 -1 -1 -1 -1 -1 -1 -1 -1 -1 -1 -1 -1 -1 -1 -1 -1 -1 -1 -1 -1 -1 -1 -1 -1 -1 -1 -1 -1 -1 -1 -1 -1 -1 -1 -1 -1 -1 -1 -1 -1 -1 -1 -1 -1 -1 -1 -1 -1 -1 -1 -1 -1 -1 -1 -1 -1 -1 -1 -1 -1 -1 -1 -1 -1 -1 -1 -1 -1 -1 -1 -1 -1 -1 -1 -1 -1 -1 -1 -1 -1 -1 -1 -1 -1 -1 -1 -1 -1 -1 -1 -1 -1 -1 -1 -1 -1 -1 -1 -1 -1 -1 -1 -1 -1 -1 -1 -1 -1 -1 -1 -1 -1 -1 -1 -1 -1 -1 -1 -1 -1 -1 -1 -1 -1 -1 -1 -1 -1 -1 -1 -1 -1 -1 -1 -1 -1 -1 -1 -1 -1 -1 -1 -1 -1 -1 -1 -1 -1 -1 -1 -1 -1 -1 -1 -1 -1 -1 -1 -1 -1 -1 -1 -1 -1 -1 -1 -1 -1 -1 -1 -1 -1 -1 -1 -1 -1 -1 -1 -1 -1 -1 -1 -1 -1 -1 -1 -1 -1 -1 -1 -1 -1 -1 -1 -1 -1 -1 -1 -1 -1 -1 -1 -1 -1 -1 -1 -1 -1 -1 -1 -1 -1 -1 -1 -1 -1 -1 -1 -1 -1 -1 -1 -1 -1 -1 -1 -1 -1 -1 -1 -1 -1 -1 -1 -1 -1 -1 -1 -1 -1 -1 -1 -1 -1 -1 -1 -1 -1 -1 -1 -1 -1 -1 -1 -1 -1 -1 -1 -1 -1 -1 -1 -1 -1 -1 -1 -1 -1 -1 -1 -1 -1 -1 -1 -1 -1 -1 -1 -1 -1 -1 -1 -1 -1 -1 -1 -1 -1 -1 -1 -1 -1 -1 -1 -1 -1 -1 -1 -1 -1 -1 -1 -1 -1 -1 -1 -1 -1 -1 -1 -1 -1 -1 -1 -1 -1 -1 -1 -1 -1 -1 -1 -1 -1 -1 -1 -1 -1 -1 -1 -1 -1 -1 -1 -1 -1 -1 -1 -1 -1 -1 -1 -1 -1 -1 -1 -1 -1 -1 -1 -1 -1 -1 -1 -1 -1 -1 -1 -1 -1 -1 -1 -1 -1 -1 -1 -1 -1 -1 -1 -1 -1 -1 -1 -1 -1 -1 -1 -1 -1 -1 -1 -1 -1 -1 -1 -1 -1 -1 -1 -1 -1 -1 -1 -1 -1 -1 -1 -1 -1 -1 -1 -1 -1 -1 -1 -1 -1 -1 -1 -1 -1 -1 -1 -1 -1 -1 -1 -1 -1 -1 -1 -1 -1 -1 -1 -1 -1 -1 -1 -1 -1 -1 -1 -1 -1 -1 -1 -1 -1 -1 -1 -1 -1 -1 -1 -1 -1 -1 -1 -1 -1 -1 -1 -1 -1 -1 -1 -1 -1 -1 -1 -1 -1 -1 -1 -1 -1 -1 -1 -1 -1 -1 -1 -1 -1 -1 -1 -1 -1 -1 -1 -1 -1 -1 -1 -1 -1 -1 -1 -1 -1 -1 -1 -1 -1 -1 -1 -1 


