# vtk DataFile Version 3.0
Triangulation generated with deal.II
ASCII
DATASET UNSTRUCTURED_GRID
POINTS 1001 double
800 0 0
820 0 0
840 0 0
860 0 0
880 0 0
900 0 0
920 0 0
940 0 0
960 0 0
980 0 0
1000 0 0
800 20 0
820 20 0
840 20 0
860 20 0
880 20 0
900 20 0
920 20 0
940 20 0
960 20 0
980 20 0
1000 20 0
800 40 0
820 40 0
840 40 0
860 40 0
880 40 0
900 40 0
920 40 0
940 40 0
960 40 0
980 40 0
1000 40 0
800 60 0
820 60 0
840 60 0
860 60 0
880 60 0
900 60 0
920 60 0
940 60 0
960 60 0
980 60 0
1000 60 0
800 80 0
820 80 0
840 80 0
860 80 0
880 80 0
900 80 0
920 80 0
940 80 0
960 80 0
980 80 0
1000 80 0
800 100 0
820 100 0
840 100 0
860 100 0
880 100 0
900 100 0
920 100 0
940 100 0
960 100 0
980 100 0
1000 100 0
800 120 0
820 120 0
840 120 0
860 120 0
880 120 0
900 120 0
920 120 0
940 120 0
960 120 0
980 120 0
1000 120 0
800 140 0
820 140 0
840 140 0
860 140 0
880 140 0
900 140 0
920 140 0
940 140 0
960 140 0
980 140 0
1000 140 0
800 160 0
820 160 0
840 160 0
860 160 0
880 160 0
900 160 0
920 160 0
940 160 0
960 160 0
980 160 0
1000 160 0
800 180 0
820 180 0
840 180 0
860 180 0
880 180 0
900 180 0
920 180 0
940 180 0
960 180 0
980 180 0
1000 180 0
800 200 0
820 200 0
840 200 0
860 200 0
880 200 0
900 200 0
920 200 0
940 200 0
960 200 0
980 200 0
1000 200 0
800 220 0
820 220 0
840 220 0
860 220 0
880 220 0
900 220 0
920 220 0
940 220 0
960 220 0
980 220 0
1000 220 0
800 240 0
820 240 0
840 240 0
860 240 0
880 240 0
900 240 0
920 240 0
940 240 0
960 240 0
980 240 0
1000 240 0
800 260 0
820 260 0
840 260 0
860 260 0
880 260 0
900 260 0
920 260 0
940 260 0
960 260 0
980 260 0
1000 260 0
800 280 0
820 280 0
840 280 0
860 280 0
880 280 0
900 280 0
920 280 0
940 280 0
960 280 0
980 280 0
1000 280 0
800 300 0
820 300 0
840 300 0
860 300 0
880 300 0
900 300 0
920 300 0
940 300 0
960 300 0
980 300 0
1000 300 0
800 320 0
820 320 0
840 320 0
860 320 0
880 320 0
900 320 0
920 320 0
940 320 0
960 320 0
980 320 0
1000 320 0
800 340 0
820 340 0
840 340 0
860 340 0
880 340 0
900 340 0
920 340 0
940 340 0
960 340 0
980 340 0
1000 340 0
800 360 0
820 360 0
840 360 0
860 360 0
880 360 0
900 360 0
920 360 0
940 360 0
960 360 0
980 360 0
1000 360 0
800 380 0
820 380 0
840 380 0
860 380 0
880 380 0
900 380 0
920 380 0
940 380 0
960 380 0
980 380 0
1000 380 0
800 400 0
820 400 0
840 400 0
860 400 0
880 400 0
900 400 0
920 400 0
940 400 0
960 400 0
980 400 0
1000 400 0
800 420 0
820 420 0
840 420 0
860 420 0
880 420 0
900 420 0
920 420 0
940 420 0
960 420 0
980 420 0
1000 420 0
800 440 0
820 440 0
840 440 0
860 440 0
880 440 0
900 440 0
920 440 0
940 440 0
960 440 0
980 440 0
1000 440 0
800 460 0
820 460 0
840 460 0
860 460 0
880 460 0
900 460 0
920 460 0
940 460 0
960 460 0
980 460 0
1000 460 0
800 480 0
820 480 0
840 480 0
860 480 0
880 480 0
900 480 0
920 480 0
940 480 0
960 480 0
980 480 0
1000 480 0
800 500 0
820 500 0
840 500 0
860 500 0
880 500 0
900 500 0
920 500 0
940 500 0
960 500 0
980 500 0
1000 500 0
800 520 0
820 520 0
840 520 0
860 520 0
880 520 0
900 520 0
920 520 0
940 520 0
960 520 0
980 520 0
1000 520 0
800 540 0
820 540 0
840 540 0
860 540 0
880 540 0
900 540 0
920 540 0
940 540 0
960 540 0
980 540 0
1000 540 0
800 560 0
820 560 0
840 560 0
860 560 0
880 560 0
900 560 0
920 560 0
940 560 0
960 560 0
980 560 0
1000 560 0
800 580 0
820 580 0
840 580 0
860 580 0
880 580 0
900 580 0
920 580 0
940 580 0
960 580 0
980 580 0
1000 580 0
800 600 0
820 600 0
840 600 0
860 600 0
880 600 0
900 600 0
920 600 0
940 600 0
960 600 0
980 600 0
1000 600 0
800 620 0
820 620 0
840 620 0
860 620 0
880 620 0
900 620 0
920 620 0
940 620 0
960 620 0
980 620 0
1000 620 0
800 640 0
820 640 0
840 640 0
860 640 0
880 640 0
900 640 0
920 640 0
940 640 0
960 640 0
980 640 0
1000 640 0
800 660 0
820 660 0
840 660 0
860 660 0
880 660 0
900 660 0
920 660 0
940 660 0
960 660 0
980 660 0
1000 660 0
800 680 0
820 680 0
840 680 0
860 680 0
880 680 0
900 680 0
920 680 0
940 680 0
960 680 0
980 680 0
1000 680 0
800 700 0
820 700 0
840 700 0
860 700 0
880 700 0
900 700 0
920 700 0
940 700 0
960 700 0
980 700 0
1000 700 0
800 720 0
820 720 0
840 720 0
860 720 0
880 720 0
900 720 0
920 720 0
940 720 0
960 720 0
980 720 0
1000 720 0
800 740 0
820 740 0
840 740 0
860 740 0
880 740 0
900 740 0
920 740 0
940 740 0
960 740 0
980 740 0
1000 740 0
800 760 0
820 760 0
840 760 0
860 760 0
880 760 0
900 760 0
920 760 0
940 760 0
960 760 0
980 760 0
1000 760 0
800 780 0
820 780 0
840 780 0
860 780 0
880 780 0
900 780 0
920 780 0
940 780 0
960 780 0
980 780 0
1000 780 0
0 800 0
20 800 0
40 800 0
60 800 0
80 800 0
100 800 0
120 800 0
140 800 0
160 800 0
180 800 0
200 800 0
220 800 0
240 800 0
260 800 0
280 800 0
300 800 0
320 800 0
340 800 0
360 800 0
380 800 0
400 800 0
420 800 0
440 800 0
460 800 0
480 800 0
500 800 0
520 800 0
540 800 0
560 800 0
580 800 0
600 800 0
620 800 0
640 800 0
660 800 0
680 800 0
700 800 0
720 800 0
740 800 0
760 800 0
780 800 0
800 800 0
820 800 0
840 800 0
860 800 0
880 800 0
900 800 0
920 800 0
940 800 0
960 800 0
980 800 0
1000 800 0
0 820 0
20 820 0
40 820 0
60 820 0
80 820 0
100 820 0
120 820 0
140 820 0
160 820 0
180 820 0
200 820 0
220 820 0
240 820 0
260 820 0
280 820 0
300 820 0
320 820 0
340 820 0
360 820 0
380 820 0
400 820 0
420 820 0
440 820 0
460 820 0
480 820 0
500 820 0
520 820 0
540 820 0
560 820 0
580 820 0
600 820 0
620 820 0
640 820 0
660 820 0
680 820 0
700 820 0
720 820 0
740 820 0
760 820 0
780 820 0
800 820 0
820 820 0
840 820 0
860 820 0
880 820 0
900 820 0
920 820 0
940 820 0
960 820 0
980 820 0
1000 820 0
0 840 0
20 840 0
40 840 0
60 840 0
80 840 0
100 840 0
120 840 0
140 840 0
160 840 0
180 840 0
200 840 0
220 840 0
240 840 0
260 840 0
280 840 0
300 840 0
320 840 0
340 840 0
360 840 0
380 840 0
400 840 0
420 840 0
440 840 0
460 840 0
480 840 0
500 840 0
520 840 0
540 840 0
560 840 0
580 840 0
600 840 0
620 840 0
640 840 0
660 840 0
680 840 0
700 840 0
720 840 0
740 840 0
760 840 0
780 840 0
800 840 0
820 840 0
840 840 0
860 840 0
880 840 0
900 840 0
920 840 0
940 840 0
960 840 0
980 840 0
1000 840 0
0 860 0
20 860 0
40 860 0
60 860 0
80 860 0
100 860 0
120 860 0
140 860 0
160 860 0
180 860 0
200 860 0
220 860 0
240 860 0
260 860 0
280 860 0
300 860 0
320 860 0
340 860 0
360 860 0
380 860 0
400 860 0
420 860 0
440 860 0
460 860 0
480 860 0
500 860 0
520 860 0
540 860 0
560 860 0
580 860 0
600 860 0
620 860 0
640 860 0
660 860 0
680 860 0
700 860 0
720 860 0
740 860 0
760 860 0
780 860 0
800 860 0
820 860 0
840 860 0
860 860 0
880 860 0
900 860 0
920 860 0
940 860 0
960 860 0
980 860 0
1000 860 0
0 880 0
20 880 0
40 880 0
60 880 0
80 880 0
100 880 0
120 880 0
140 880 0
160 880 0
180 880 0
200 880 0
220 880 0
240 880 0
260 880 0
280 880 0
300 880 0
320 880 0
340 880 0
360 880 0
380 880 0
400 880 0
420 880 0
440 880 0
460 880 0
480 880 0
500 880 0
520 880 0
540 880 0
560 880 0
580 880 0
600 880 0
620 880 0
640 880 0
660 880 0
680 880 0
700 880 0
720 880 0
740 880 0
760 880 0
780 880 0
800 880 0
820 880 0
840 880 0
860 880 0
880 880 0
900 880 0
920 880 0
940 880 0
960 880 0
980 880 0
1000 880 0
0 900 0
20 900 0
40 900 0
60 900 0
80 900 0
100 900 0
120 900 0
140 900 0
160 900 0
180 900 0
200 900 0
220 900 0
240 900 0
260 900 0
280 900 0
300 900 0
320 900 0
340 900 0
360 900 0
380 900 0
400 900 0
420 900 0
440 900 0
460 900 0
480 900 0
500 900 0
520 900 0
540 900 0
560 900 0
580 900 0
600 900 0
620 900 0
640 900 0
660 900 0
680 900 0
700 900 0
720 900 0
740 900 0
760 900 0
780 900 0
800 900 0
820 900 0
840 900 0
860 900 0
880 900 0
900 900 0
920 900 0
940 900 0
960 900 0
980 900 0
1000 900 0
0 920 0
20 920 0
40 920 0
60 920 0
80 920 0
100 920 0
120 920 0
140 920 0
160 920 0
180 920 0
200 920 0
220 920 0
240 920 0
260 920 0
280 920 0
300 920 0
320 920 0
340 920 0
360 920 0
380 920 0
400 920 0
420 920 0
440 920 0
460 920 0
480 920 0
500 920 0
520 920 0
540 920 0
560 920 0
580 920 0
600 920 0
620 920 0
640 920 0
660 920 0
680 920 0
700 920 0
720 920 0
740 920 0
760 920 0
780 920 0
800 920 0
820 920 0
840 920 0
860 920 0
880 920 0
900 920 0
920 920 0
940 920 0
960 920 0
980 920 0
1000 920 0
0 940 0
20 940 0
40 940 0
60 940 0
80 940 0
100 940 0
120 940 0
140 940 0
160 940 0
180 940 0
200 940 0
220 940 0
240 940 0
260 940 0
280 940 0
300 940 0
320 940 0
340 940 0
360 940 0
380 940 0
400 940 0
420 940 0
440 940 0
460 940 0
480 940 0
500 940 0
520 940 0
540 940 0
560 940 0
580 940 0
600 940 0
620 940 0
640 940 0
660 940 0
680 940 0
700 940 0
720 940 0
740 940 0
760 940 0
780 940 0
800 940 0
820 940 0
840 940 0
860 940 0
880 940 0
900 940 0
920 940 0
940 940 0
960 940 0
980 940 0
1000 940 0
0 960 0
20 960 0
40 960 0
60 960 0
80 960 0
100 960 0
120 960 0
140 960 0
160 960 0
180 960 0
200 960 0
220 960 0
240 960 0
260 960 0
280 960 0
300 960 0
320 960 0
340 960 0
360 960 0
380 960 0
400 960 0
420 960 0
440 960 0
460 960 0
480 960 0
500 960 0
520 960 0
540 960 0
560 960 0
580 960 0
600 960 0
620 960 0
640 960 0
660 960 0
680 960 0
700 960 0
720 960 0
740 960 0
760 960 0
780 960 0
800 960 0
820 960 0
840 960 0
860 960 0
880 960 0
900 960 0
920 960 0
940 960 0
960 960 0
980 960 0
1000 960 0
0 980 0
20 980 0
40 980 0
60 980 0
80 980 0
100 980 0
120 980 0
140 980 0
160 980 0
180 980 0
200 980 0
220 980 0
240 980 0
260 980 0
280 980 0
300 980 0
320 980 0
340 980 0
360 980 0
380 980 0
400 980 0
420 980 0
440 980 0
460 980 0
480 980 0
500 980 0
520 980 0
540 980 0
560 980 0
580 980 0
600 980 0
620 980 0
640 980 0
660 980 0
680 980 0
700 980 0
720 980 0
740 980 0
760 980 0
780 980 0
800 980 0
820 980 0
840 980 0
860 980 0
880 980 0
900 980 0
920 980 0
940 980 0
960 980 0
980 980 0
1000 980 0
0 1000 0
20 1000 0
40 1000 0
60 1000 0
80 1000 0
100 1000 0
120 1000 0
140 1000 0
160 1000 0
180 1000 0
200 1000 0
220 1000 0
240 1000 0
260 1000 0
280 1000 0
300 1000 0
320 1000 0
340 1000 0
360 1000 0
380 1000 0
400 1000 0
420 1000 0
440 1000 0
460 1000 0
480 1000 0
500 1000 0
520 1000 0
540 1000 0
560 1000 0
580 1000 0
600 1000 0
620 1000 0
640 1000 0
660 1000 0
680 1000 0
700 1000 0
720 1000 0
740 1000 0
760 1000 0
780 1000 0
800 1000 0
820 1000 0
[...]
CELL_DATA 900
SCALARS MaterialID int 1
LOOKUP_TABLE default
0 0 0 0 0 0 0 0 0 0 0 0 0 0 0 0 0 0 0 0 0 0 0 0 0 0 0 0 0 0 0 0 0 0 0 0 0 0 0 0 0 0 0 0 0 0 0 0 0 0 0 0 0 0 0 0 0 0 0 0 0 0 0 0 0 0 0 0 0 0 0 0 0 0 0 0 0 0 0 0 0 0 0 0 0 0 0 0 0 0 0 0 0 0 0 0 0 0 0 0 0 0 0 0 0 0 0 0 0 0 0 0 0 0 0 0 0 0 0 0 0 0 0 0 0 0 0 0 0 0 0 0 0 0 0 0 0 0 0 0 0 0 0 0 0 0 0 0 0 0 0 0 0 0 0 0 0 0 0 0 0 0 0 0 0 0 0 0 0 0 0 0 0 0 0 0 0 0 0 0 0 0 0 0 0 0 0 0 0 0 0 0 0 0 0 0 0 0 0 0 0 0 0 0 0 0 0 0 0 0 0 0 0 0 0 0 0 0 0 0 0 0 0 0 0 0 0 0 0 0 0 0 0 0 0 0 0 0 0 0 0 0 0 0 0 0 0 0 0 0 0 0 0 0 0 0 0 0 0 0 0 0 0 0 0 0 0 0 0 0 0 0 0 0 0 0 0 0 0 0 0 0 0 0 0 0 0 0 0 0 0 0 0 0 0 0 0 0 0 0 0 0 0 0 0 0 0 0 0 0 0 0 0 0 0 0 0 0 0 0 0 0 0 0 0 0 0 0 0 0 0 0 0 0 0 0 0 0 0 0 0 0 0 0 0 0 0 0 0 0 0 0 0 0 0 0 0 0 0 0 0 0 0 0 0 0 0 0 0 0 0 0 0 0 0 0 0 0 0 0 0 0 0 0 0 0 0 0 0 0 0 0 0 0 0 0 0 0 0 0 0 0 0 0 0 0 0 0 0 0 0 0 0 0 0 0 0 0 0 0 0 0 0 0 0 0 0 0 0 0 0 0 0 0 0 0 0 0 0 0 0 0 0 0 0 0 0 0 0 0 0 0 0 0 0 0 0 0 0 0 0 0 0 0 0 0 0 0 0 0 0 0 0 0 0 0 0 0 0 0 0 0 0 0 0 0 0 0 0 0 0 0 0 0 0 0 0 0 0 0 0 0 0 0 0 0 0 0 0 0 0 0 0 0 0 0 0 0 0 0 0 0 0 0 0 0 0 0 0 0 0 0 0 0 0 0 0 0 0 0 0 0 0 0 0 0 0 0 0 0 0 0 0 0 0 0 0 0 0 0 0 0 0 0 0 0 0 0 0 0 0 0 0 0 0 0 0 0 0 0 0 0 0 0 0 0 0 0 0 0 0 0 0 0 0 0 0 0 0 0 0 0 0 0 0 0 0 0 0 0 0 0 0 0 0 0 0 0 0 0 0 0 0 0 0 0 0 0 0 0 0 0 0 0 0 0 0 0 0 0 0 0 0 0 0 0 0 0 0 0 0 0 0 0 0 0 0 0 0 0 0 0 0 0 0 0 0 0 0 0 0 0 0 0 0 0 0 0 0 0 0 0 0 0 0 0 0 0 0 0 0 0 0 0 0 0 0 0 0 0 0 0 0 0 0 0 0 0 0 0 0 0 0 0 0 0 0 0 0 0 0 0 0 0 0 0 0 0 0 0 0 0 0 0 0 0 0 0 0 0 0 0 0 0 0 0 0 0 0 0 0 0 0 0 0 0 0 0 0 0 0 0 0 0 0 0 0 0 0 0 0 0 0 0 0 0 0 0 0 0 0 0 0 0 0 0 0 0 0 0 0 0 0 0 0 0 0 0 0 0 0 0 0 0 0 0 0 0 0 0 0 0 0 0 0 0 0 0 0 0 0 0 0 0 0 0 0 0 0 0 0 0 0 0 0 0 0 0 0 0 0 0 0 0 0 0 0 0 0 0 0 0 0 0 0 0 0 0 0 0 0 0 0 0 0 0 0 0 0 0 0 0 0 0 0 0 0 0 0 0 0 0 0 0 0 0 0 0 0 0 0 0 0 0 0 0 0 0 0 0 



SCALARS ManifoldID int 1
LOOKUP_TABLE default
-1 -1 -1 -1 -1 -1 -1 -1 -1 -1 -1 -1 -1 -1 -1 -1 -1 -1 -1 -1 -1 -1 -1 -1 -1 -1 -1 -1 -1 -1 -1 -1 -1 -1 -1 -1 -1 -1 -1 -1 -1 -1 -1 -1 -1 -1 -1 -1 -1 -1 -1 -1 -1 -1 -1 -1 -1 -1 -1 -1 -1 -1 -1 -1 -1 -1 -1 -1 -1 -1 -1 -1 -1 -1 -1 -1 -1 -1 -1 -1 -1 -1 -1 -1 -1 -1 -1 -1 -1 -1 -1 -1 -1 -1 -1 -1 -1 -1 -1 -1 -1 -1 -1 -1 -1 -1 -1 -1 -1 -1 -1 -1 -1 -1 -1 -1 -1 -1 -1 -1 -1 -1 -1 -1 -1 -1 -1 -1 -1 -1 -1 -1 -1 -1 -1 -1 -1 -1 -1 -1 -1 -1 -1 -1 -1 -1 -1 -1 -1 -1 -1 -1 -1 -1 -1 -1 -1 -1 -1 -1 -1 -1 -1 -1 -1 -1 -1 -1 -1 -1 -1 -1 -1 -1 -1 -1 -1 -1 -1 -1 -1 -1 -1 -1 -1 -1 -1 -1 -1 -1 -1 -1 -1 -1 -1 -1 -1 -1 -1 -1 -1 -1 -1 -1 -1 -1 -1 -1 -1 -1 -1 -1 -1 -1 -1 -1 -1 -1 -1 -1 -1 -1 -1 -1 -1 -1 -1 -1 -1 -1 -1 -1 -1 -1 -1 -1 -1 -1 -1 -1 -1 -1 -1 -1 -1 -1 -1 -1 -1 -1 -1 -1 -1 -1 -1 -1 -1 -1 -1 -1 -1 -1 -1 -1 -1 -1 -1 -1 -1 -1 -1 -1 -1 -1 -1 -1 -1 -1 -1 -1 -1 -1 -1 -1 -1 -1 -1 -1 -1 -1 -1 -1 -1 -1 -1 -1 -1 -1 -1 -1 -1 -1 -1 -1 -1 -1 -1 -1 -1 -1 -1 -1 -1 -1 -1 -1 -1 -1 -1 -1 -1 -1 -1 -1 -1 -1 -1 -1 -1 -1 -1 -1 -1 -1 -1 -1 -1 -1 -1 -1 -1 -1 -1 -1 -1 -1 -1 -1 -1 -1 -1 -1 -1 -1 -1 -1 -1 -1 -1 -1 -1 -1 -1 -1 -1 -1 -1 -1 -1 -1 -1 -1 -1 -1 -1 -1 -1 -1 -1 -1 -1 -1 -1 -1 -1 -1 -1 -1 -1 -1 -1 -1 -1 -1 -1 -1 -1 -1 -1 -1 -1 -1 -1 -1 -1 -1 -1 -1 -1 -1 -1 -1 -1 -1 -1 -1 -1 -1 -1 -1 -1 -1 -1 -1 -1 -1 -1 -1 -1 -1 -1 -1 -1 -1 -1 -1 -1 -1 -1 -1 -1 -1 -1 -1 -1 -1 -1 -1 -1 -1 -1 -1 -1 -1 -1 -1 -1 -1 -1 -1 -1 -1 -1 -1 -1 -1 -1 -1 -1 -1 -1 -1 -1 -1 -1 -1 -1 -1 -1 -1 -1 -1 -1 -1 -1 -1 -1 -1 -1 -1 -1 -1 -1 -1 -1 -1 -1 -1 -1 -1 -1 -1 -1 -1 -1 -1 -1 -1 -1 -1 -1 -1 -1 -1 -1 -1 -1 -1 -1 -1 -1 -1 -1 -1 -1 -1 -1 -1 -1 -1 -1 -1 -1 -1 -1 -1 -1 -1 -1 -1 -1 -1 -1 -1 -1 -1 -1 -1 -1 -1 -1 -1 -1 -1 -1 -1 -1 -1 -1 -1 -1 -1 -1 -1 -1 -1 -1 -1 -1 -1 -1 -1 -1 -1 -1 -1 -1 -1 -1 -1 -1 -1 -1 -1 -1 -1 -1 -1 -1 -1 -1 -1 -1 -1 -1 -1 -1 -1 -1 -1 -1 -1 -1 -1 -1 -1 -1 -1 -1 -1 -1 -1 -1 -1 -1 -1 -1 -1 -1 -1 -1 -1 -1 -1 -1 -1 -1 -1 -1 -1 -1 -1 -1 -1 -1 -1 -1 -1 -1 -1 -1 -1 -1 -1 -1 -1 -1 -1 -1 -1 -1 -1 -1 -1 -1 -1 -1 -1 -1 -1 -1 -1 -1 -1 -1 -1 -1 -1 -1 -1 -1 -1 -1 -1 -1 -1 -1 -1 -1 -1 -1 -1 -1 -1 -1 -1 -1 -1 -1 -1 -1 -1 -1 -1 -1 -1 -1 -1 -1 -1 -1 -1 -1 -1 -1 -1 -1 -1 -1 -1 -1 -1 -1 -1 -1 -1 -1 -1 -1 -1 -1 -1 -1 -1 -1 -1 -1 -1 -1 -1 -1 -1 -1 -1 -1 -1 -1 -1 -1 -1 -1 -1 -1 -1 -1 -1 -1 -1 -1 -1 -1 -1 -1 -1 -1 -1 -1 -1 -1 -1 -1 -1 -1 -1 -1 -1 -1 -1 -1 -1 -1 -1 -1 -1 -1 -1 -1 -1 -1 -1 -1 -1 -1 -1 -1 -1 -1 -1 -1 -1 -1 -1 -1 -1 -1 -1 -1 -1 -1 -1 -1 -1 -1 -1 -1 -1 -1 -1 -1 -1 -1 -1 -1 -1 -1 -1 -1 -1 -1 -1 -1 -1 -1 -1 -1 -1 -1 -1 -1 -1 -1 -1 -1 -1 -1 -1 -1 -1 -1 -1 -1 -1 -1 -1 -1 -1 -1 -1 -1 -1 -1 -1 -1 -1 -1 -1 -1 -1 -1 -1 -1 -1 -1 -1 -1 -1 -1 -1 -1 -1 -1 -1 -1 -1 -1 -1 -1 -1 -1 -1 -1 -1 -1 -1 -1 -1 -1 -1 -1 -1 -1 -1 -1 -1 -1 -1 -1 -1 -1 -1 


