# vtk DataFile Version 3.0
Triangulation generated with deal.II
ASCII
DATASET UNSTRUCTURED_GRID
POINTS 432 double
0 0 0
50 0 0
100 0 0
150 0 0
200 0 0
250 0 0
300 0 0
350 0 0
400 0 0
450 0 0
500 0 0
550 0 0
600 0 0
650 0 0
700 0 0
750 0 0
800 0 0
850 0 0
900 0 0
950 0 0
1000 0 0
0 50 0
50 50 0
100 50 0
150 50 0
200 50 0
250 50 0
300 50 0
350 50 0
400 50 0
450 50 0
500 50 0
550 50 0
600 50 0
650 50 0
700 50 0
750 50 0
800 50 0
850 50 0
900 50 0
950 50 0
1000 50 0
0 100 0
50 100 0
100 100 0
150 100 0
200 100 0
250 100 0
300 100 0
350 100 0
400 100 0
450 100 0
500 100 0
550 100 0
600 100 0
650 100 0
700 100 0
750 100 0
800 100 0
850 100 0
900 100 0
950 100 0
1000 100 0
0 150 0
50 150 0
100 150 0
150 150 0
200 150 0
250 150 0
300 150 0
350 150 0
400 150 0
450 150 0
500 150 0
550 150 0
600 150 0
650 150 0
700 150 0
750 150 0
800 150 0
850 150 0
900 150 0
950 150 0
1000 150 0
0 200 0
50 200 0
100 200 0
150 200 0
200 200 0
250 200 0
300 200 0
350 200 0
400 200 0
450 200 0
500 200 0
550 200 0
600 200 0
650 200 0
700 200 0
750 200 0
800 200 0
850 200 0
900 200 0
950 200 0
1000 200 0
0 250 0
50 250 0
100 250 0
150 250 0
200 250 0
250 250 0
300 250 0
350 250 0
400 250 0
450 250 0
500 250 0
550 250 0
600 250 0
650 250 0
700 250 0
750 250 0
800 250 0
850 250 0
900 250 0
950 250 0
1000 250 0
0 300 0
50 300 0
100 300 0
150 300 0
200 300 0
250 300 0
300 300 0
350 300 0
400 300 0
450 300 0
500 300 0
550 300 0
600 300 0
650 300 0
700 300 0
750 300 0
800 300 0
850 300 0
900 300 0
950 300 0
1000 300 0
0 350 0
50 350 0
100 350 0
150 350 0
200 350 0
250 350 0
300 350 0
350 350 0
400 350 0
450 350 0
500 350 0
550 350 0
600 350 0
650 350 0
700 350 0
750 350 0
800 350 0
850 350 0
900 350 0
950 350 0
1000 350 0
0 400 0
50 400 0
100 400 0
150 400 0
200 400 0
250 400 0
300 400 0
350 400 0
400 400 0
450 400 0
500 400 0
550 400 0
600 400 0
650 400 0
700 400 0
750 400 0
800 400 0
850 400 0
900 400 0
950 400 0
1000 400 0
0 450 0
50 450 0
100 450 0
150 450 0
200 450 0
250 450 0
300 450 0
350 450 0
400 450 0
600 450 0
650 450 0
700 450 0
750 450 0
800 450 0
850 450 0
900 450 0
950 450 0
1000 450 0
0 500 0
50 500 0
100 500 0
150 500 0
200 500 0
250 500 0
300 500 0
350 500 0
400 500 0
600 500 0
650 500 0
700 500 0
750 500 0
800 500 0
850 500 0
900 500 0
950 500 0
1000 500 0
0 550 0
50 550 0
100 550 0
150 550 0
200 550 0
250 550 0
300 550 0
350 550 0
400 550 0
600 550 0
650 550 0
700 550 0
750 550 0
800 550 0
850 550 0
900 550 0
950 550 0
1000 550 0
0 600 0
50 600 0
100 600 0
150 600 0
200 600 0
250 600 0
300 600 0
350 600 0
400 600 0
450 600 0
500 600 0
550 600 0
600 600 0
650 600 0
700 600 0
750 600 0
800 600 0
850 600 0
900 600 0
950 600 0
1000 600 0
0 650 0
50 650 0
100 650 0
150 650 0
200 650 0
250 650 0
300 650 0
350 650 0
400 650 0
450 650 0
500 650 0
550 650 0
600 650 0
650 650 0
700 650 0
750 650 0
800 650 0
850 650 0
900 650 0
950 650 0
1000 650 0
0 700 0
50 700 0
100 700 0
150 700 0
200 700 0
250 700 0
300 700 0
350 700 0
400 700 0
450 700 0
500 700 0
550 700 0
600 700 0
650 700 0
700 700 0
750 700 0
800 700 0
850 700 0
900 700 0
950 700 0
1000 700 0
0 750 0
50 750 0
100 750 0
150 750 0
200 750 0
250 750 0
300 750 0
350 750 0
400 750 0
450 750 0
500 750 0
550 750 0
600 750 0
650 750 0
700 750 0
750 750 0
800 750 0
850 750 0
900 750 0
950 750 0
1000 750 0
0 800 0
50 800 0
100 800 0
150 800 0
200 800 0
250 800 0
300 800 0
350 800 0
400 800 0
450 800 0
500 800 0
550 800 0
600 800 0
650 800 0
700 800 0
750 800 0
800 800 0
850 800 0
900 800 0
950 800 0
1000 800 0
0 850 0
50 850 0
100 850 0
150 850 0
200 850 0
250 850 0
300 850 0
350 850 0
400 850 0
450 850 0
500 850 0
550 850 0
600 850 0
650 850 0
700 850 0
750 850 0
800 850 0
850 850 0
900 850 0
950 850 0
1000 850 0
0 900 0
50 900 0
100 900 0
150 900 0
200 900 0
250 900 0
300 900 0
350 900 0
400 900 0
450 900 0
500 900 0
550 900 0
600 900 0
650 900 0
700 900 0
750 900 0
800 900 0
850 900 0
900 900 0
950 900 0
1000 900 0
0 950 0
50 950 0
100 950 0
150 950 0
200 950 0
250 950 0
300 950 0
350 950 0
400 950 0
450 950 0
500 950 0
550 950 0
600 950 0
650 950 0
700 950 0
750 950 0
800 950 0
850 950 0
900 950 0
950 950 0
1000 950 0
0 1000 0
50 1000 0
100 1000 0
150 1000 0
200 1000 0
250 1000 0
300 1000 0
350 1000 0
400 1000 0
450 1000 0
500 1000 0
550 1000 0
600 1000 0
650 1000 0
700 1000 0
750 1000 0
800 1000 0
850 1000 0
900 1000 0
950 1000 0
1000 1000 0

CELLS 384 1920
4 0 1 22 21
4 1 2 23 22
4 2 3 24 23
4 3 4 25 24
4 4 5 26 25
4 5 6 27 26
4 6 7 28 27
4 7 8 29 28
4 8 9 30 29
4 9 10 31 30
4 10 11 32 31
4 11 12 33 32
4 12 13 34 33
4 13 14 35 34
4 14 15 36 35
4 15 16 37 36
4 16 17 38 37
4 17 18 39 38
4 18 19 40 39
4 19 20 41 40
4 21 22 43 42
4 22 23 44 43
4 23 24 45 44
4 24 25 46 45
4 25 26 47 46
4 26 27 48 47
4 27 28 49 48
4 28 29 50 49
4 29 30 51 50
4 30 31 52 51
4 31 32 53 52
4 32 33 54 53
4 33 34 55 54
4 34 35 56 55
4 35 36 57 56
4 36 37 58 57
4 37 38 59 58
4 38 39 60 59
4 39 40 61 60
4 40 41 62 61
4 42 43 64 63
4 43 44 65 64
4 44 45 66 65
4 45 46 67 66
4 46 47 68 67
4 47 48 69 68
4 48 49 70 69
4 49 50 71 70
4 50 51 72 71
4 51 52 73 72
4 52 53 74 73
4 53 54 75 74
4 54 55 76 75
4 55 56 77 76
4 56 57 78 77
4 57 58 79 78
4 58 59 80 79
4 59 60 81 80
4 60 61 82 81
4 61 62 83 82
4 63 64 85 84
4 64 65 86 85
4 65 66 87 86
4 66 67 88 87
4 67 68 89 88
4 68 69 90 89
4 69 70 91 90
4 70 71 92 91
4 71 72 93 92
4 72 73 94 93
4 73 74 95 94
4 74 75 96 95
4 75 76 97 96
4 76 77 98 97
4 77 78 99 98
4 78 79 100 99
4 79 80 101 100
4 80 81 102 101
4 81 82 103 102
4 82 83 104 103
4 84 85 106 105
4 85 86 107 106
4 86 87 108 107
4 87 88 109 108
4 88 89 110 109
4 89 90 111 110
4 90 91 112 111
4 91 92 113 112
4 92 93 114 113
4 93 94 115 114
4 94 95 116 115
4 95 96 117 116
4 96 97 118 117
4 97 98 119 118
4 98 99 120 119
4 99 100 121 120
4 100 101 122 121
4 101 102 123 122
4 102 103 124 123
4 103 104 125 124
4 105 106 127 126
4 106 107 128 127
4 107 108 129 128
4 108 109 130 129
4 109 110 131 130
4 110 111 132 131
4 111 112 133 132
4 112 113 134 133
4 113 114 135 134
4 114 115 136 135
4 115 116 137 136
4 116 117 138 137
4 117 118 139 138
4 118 119 140 139
4 119 120 141 140
4 120 121 142 141
4 121 122 143 142
4 122 123 144 143
4 123 124 145 144
4 124 125 146 145
4 126 127 148 147
4 127 128 149 148
4 128 129 150 149
4 129 130 151 150
4 130 131 152 151
4 131 132 153 152
4 132 133 154 153
4 133 134 155 154
4 134 135 156 155
4 135 136 157 156
4 136 137 158 157
4 137 138 159 158
4 138 139 160 159
4 139 140 161 160
4 140 141 162 161
4 141 142 163 162
4 142 143 164 163
4 143 144 165 164
4 144 145 166 165
4 145 146 167 166
4 147 148 169 168
4 148 149 170 169
4 149 150 171 170
4 150 151 172 171
4 151 152 173 172
4 152 153 174 173
4 153 154 175 174
4 154 155 176 175
4 155 156 177 176
4 156 157 178 177
4 157 158 179 178
4 158 159 180 179
4 159 160 181 180
4 160 161 182 181
4 161 162 183 182
4 162 163 184 183
4 163 164 185 184
4 164 165 186 185
4 165 166 187 186
4 166 167 188 187
4 168 169 190 189
4 169 170 191 190
4 170 171 192 191
4 171 172 193 192
4 172 173 194 193
4 173 174 195 194
4 174 175 196 195
4 175 176 197 196
4 180 181 199 198
4 181 182 200 199
4 182 183 201 200
4 183 184 202 201
4 184 185 203 202
4 185 186 204 203
4 186 187 205 204
4 187 188 206 205
4 189 190 208 207
4 190 191 209 208
4 191 192 210 209
4 192 193 211 210
4 193 194 212 211
4 194 195 213 212
4 195 196 214 213
4 196 197 215 214
4 198 199 217 216
4 199 200 218 217
4 200 201 219 218
4 201 202 220 219
4 202 203 221 220
4 203 204 222 221
4 204 205 223 222
4 205 206 224 223
4 207 208 226 225
4 208 209 227 226
4 209 210 228 227
4 210 211 229 228
4 211 212 230 229
4 212 213 231 230
4 213 214 232 231
4 214 215 233 232
4 216 217 235 234
4 217 218 236 235
4 218 219 237 236
4 219 220 238 237
4 220 221 239 238
4 221 222 240 239
4 222 223 241 240
4 223 224 242 241
4 225 226 244 243
4 226 227 245 244
4 227 228 246 245
4 228 229 247 246
4 229 230 248 247
4 230 231 249 248
4 231 232 250 249
4 232 233 251 250
4 234 235 256 255
4 235 236 257 256
4 236 237 258 257
4 237 238 259 258
4 238 239 260 259
4 239 240 261 260
4 240 241 262 261
4 241 242 263 262
4 243 244 265 264
4 244 245 266 265
4 245 246 267 266
4 246 247 268 267
4 247 248 269 268
4 248 249 270 269
4 249 250 271 270
4 250 251 272 271
4 251 252 273 272
4 252 253 274 273
4 253 254 275 274
4 254 255 276 275
4 255 256 277 276
4 256 257 278 277
4 257 258 279 278
4 258 259 280 279
4 259 260 281 280
4 260 261 282 281
4 261 262 283 282
4 262 263 284 283
4 264 265 286 285
4 265 266 287 286
4 266 267 288 287
4 267 268 289 288
4 268 269 290 289
4 269 270 291 290
4 270 271 292 291
4 271 272 293 292
4 272 273 294 293
4 273 274 295 294
4 274 275 296 295
4 275 276 297 296
4 276 277 298 297
4 277 278 299 298
4 278 279 300 299
4 279 280 301 300
4 280 281 302 301
4 281 282 303 302
4 282 283 304 303
4 283 284 305 304
4 285 286 307 306
4 286 287 308 307
4 287 288 309 308
4 288 289 310 309
4 289 290 311 310
4 290 291 312 311
4 291 292 313 312
4 292 293 314 313
4 293 294 315 314
4 294 295 316 315
4 295 296 317 316
4 296 297 318 317
4 297 298 319 318
4 298 299 320 319
4 299 300 321 320
4 300 301 322 321
4 301 302 323 322
4 302 303 324 323
4 303 304 325 324
4 304 305 326 325
4 306 307 328 327
4 307 308 329 328
4 308 309 330 329
4 309 310 331 330
4 310 311 332 331
4 311 312 333 332
4 312 313 334 333
4 313 314 335 334
4 314 315 336 335
4 315 316 337 336
4 316 317 338 337
4 317 318 339 338
4 318 319 340 339
4 319 320 341 340
4 320 321 342 341
4 321 322 343 342
4 322 323 344 343
4 323 324 345 344
4 324 325 346 345
4 325 326 347 346
4 327 328 349 348
4 328 329 350 349
4 329 330 351 350
4 330 331 352 351
4 331 332 353 352
4 332 333 354 353
4 333 334 355 354
4 334 335 356 355
4 335 336 357 356
4 336 337 358 357
4 337 338 359 358
4 338 339 360 359
4 339 340 361 360
4 340 341 362 361
4 341 342 363 362
4 342 343 364 363
4 343 344 365 364
4 344 345 366 365
4 345 346 367 366
4 346 347 368 367
4 348 349 370 369
4 349 350 371 370
4 350 351 372 371
4 351 352 373 372
4 352 353 374 373
4 353 354 375 374
4 354 355 376 375
4 355 356 377 376
4 356 357 378 377
4 357 358 379 378
4 358 359 380 379
4 359 360 381 380
4 360 361 382 381
4 361 362 383 382
4 362 363 384 383
4 363 364 385 384
4 364 365 386 385
4 365 366 387 386
4 366 367 388 387
4 367 368 389 388
4 369 370 391 390
4 370 371 392 391
4 371 372 393 392
4 372 373 394 393
4 373 374 395 394
4 374 375 396 395
4 375 376 397 396
4 376 377 398 397
4 377 378 399 398
4 378 379 400 399
4 379 380 401 400
4 380 381 402 401
4 381 382 403 402
4 382 383 404 403
4 383 384 405 404
4 384 385 406 405
4 385 386 407 406
4 386 387 408 407
4 387 388 409 408
4 388 389 410 409
4 390 391 412 411
4 391 392 413 412
4 392 393 414 413
4 393 394 415 414
4 394 395 416 415
4 395 396 417 416
4 396 397 418 417
4 397 398 419 418
4 398 399 420 419
4 399 400 421 420
4 400 401 422 421
4 401 402 423 422
4 402 403 424 423
4 403 404 425 424
4 404 405 426 425
4 405 406 427 426
4 406 407 428 427
4 407 408 429 428
4 408 409 430 429
4 409 410 431 430

CELL_TYPES 384
9 9 9 9 9 9 9 9 9 9 9 9 9 9 9 9 9 9 9 9 9 9 9 9 9 9 9 9 9 9 9 9 9 9 9 9 9 9 9 9 9 9 9 9 9 9 9 9 9 9 9 9 9 9 9 9 9 9 9 9 9 9 9 9 9 9 9 9 9 9 9 9 9 9 9 9 9 9 9 9 9 9 9 9 9 9 9 9 9 9 9 9 9 9 9 9 9 9 9 9 9 9 9 9 9 9 9 9 9 9 9 9 9 9 9 9 9 9 9 9 9 9 9 9 9 9 9 9 9 9 9 9 9 9 9 9 9 9 9 9 9 9 9 9 9 9 9 9 9 9 9 9 9 9 9 9 9 9 9 9 9 9 9 9 9 9 9 9 9 9 9 9 9 9 9 9 9 9 9 9 9 9 9 9 9 9 9 9 9 9 9 9 9 9 9 9 9 9 9 9 9 9 9 9 9 9 9 9 9 9 9 9 9 9 9 9 9 9 9 9 9 9 9 9 9 9 9 9 9 9 9 9 9 9 9 9 9 9 9 9 9 9 9 9 9 9 9 9 9 9 9 9 9 9 9 9 9 9 9 9 9 9 9 9 9 9 9 9 9 9 9 9 9 9 9 9 9 9 9 9 9 9 9 9 9 9 9 9 9 9 9 9 9 9 9 9 9 9 9 9 9 9 9 9 9 9 9 9 9 9 9 9 9 9 9 9 9 9 9 9 9 9 9 9 9 9 9 9 9 9 9 9 9 9 9 9 9 9 9 9 9 9 9 9 9 9 9 9 9 9 9 9 9 9 9 9 9 9 9 9 9 9 9 9 9 9 9 9 9 9 9 9 9 9 9 9 9 9 9 9 9 9 9 9 



CELL_DATA 384
SCALARS MaterialID int 1
LOOKUP_TABLE default
0 0 0 0 0 0 0 0 0 0 0 0 0 0 0 0 0 0 0 0 0 0 0 0 0 0 0 0 0 0 0 0 0 0 0 0 0 0 0 0 0 0 0 0 0 0 0 0 0 0 0 0 0 0 0 0 0 0 0 0 0 0 0 0 0 0 0 0 0 0 0 0 0 0 0 0 0 0 0 0 0 0 0 0 0 0 0 0 0 0 0 0 0 0 0 0 0 0 0 0 0 0 0 0 0 0 0 0 0 0 0 0 0 0 0 0 0 0 0 0 0 0 0 0 0 0 0 0 0 0 0 0 0 0 0 0 0 0 0 0 0 0 0 0 0 0 0 0 0 0 0 0 0 0 0 0 0 0 0 0 0 0 0 0 0 0 0 0 0 0 0 0 0 0 0 0 0 0 0 0 0 0 0 0 0 0 0 0 0 0 0 0 0 0 0 0 0 0 0 0 0 0 0 0 0 0 0 0 0 0 0 0 0 0 0 0 0 0 0 0 0 0 0 0 0 0 0 0 0 0 0 0 0 0 0 0 0 0 0 0 0 0 0 0 0 0 0 0 0 0 0 0 0 0 0 0 0 0 0 0 0 0 0 0 0 0 0 0 0 0 0 0 0 0 0 0 0 0 0 0 0 0 0 0 0 0 0 0 0 0 0 0 0 0 0 0 0 0 0 0 0 0 0 0 0 0 0 0 0 0 0 0 0 0 0 0 0 0 0 0 0 0 0 0 0 0 0 0 0 0 0 0 0 0 0 0 0 0 0 0 0 0 0 0 0 0 0 0 0 0 0 0 0 0 0 0 0 0 0 0 0 0 0 0 0 0 0 0 0 0 0 0 0 0 0 0 0 0 0 0 0 0 0 0 



SCALARS ManifoldID int 1
LOOKUP_TABLE default
-1 -1 -1 -1 -1 -1 -1 -1 -1 -1 -1 -1 -1 -1 -1 -1 -1 -1 -1 -1 -1 -1 -1 -1 -1 -1 -1 -1 -1 -1 -1 -1 -1 -1 -1 -1 -1 -1 -1 -1 -1 -1 -1 -1 -1 -1 -1 -1 -1 -1 -1 -1 -1 -1 -1 -1 -1 -1 -1 -1 -1 -1 -1 -1 -1 -1 -1 -1 -1 -1 -1 -1 -1 -1 -1 -1 -1 -1 -1 -1 -1 -1 -1 -1 -1 -1 -1 -1 -1 -1 -1 -1 -1 -1 -1 -1 -1 -1 -1 -1 -1 -1 -1 -1 -1 -1 -1 -1 -1 -1 -1 -1 -1 -1 -1 -1 -1 -1 -1 -1 -1 -1 -1 -1 -1 -1 -1 -1 -1 -1 -1 -1 -1 -1 -1 -1 -1 -1 -1 -1 -1 -1 -1 -1 -1 -1 -1 -1 -1 -1 -1 -1 -1 -1 -1 -1 -1 -1 -1 -1 -1 -1 -1 -1 -1 -1 -1 -1 -1 -1 -1 -1 -1 -1 -1 -1 -1 -1 -1 -1 -1 -1 -1 -1 -1 -1 -1 -1 -1 -1 -1 -1 -1 -1 -1 -1 -1 -1 -1 -1 -1 -1 -1 -1 -1 -1 -1 -1 -1 -1 -1 -1 -1 -1 -1 -1 -1 -1 -1 -1 -1 -1 -1 -1 -1 -1 -1 -1 -1 -1 -1 -1 -1 -1 -1 -1 -1 -1 -1 -1 -1 -1 -1 -1 -1 -1 -1 -1 -1 -1 -1 -1 -1 -1 -1 -1 -1 -1 -1 -1 -1 -1 -1 -1 -1 -1 -1 -1 -1 -1 -1 -1 -1 -1 -1 -1 -1 -1 -1 -1 -1 -1 -1 -1 -1 -1 -1 -1 -1 -1 -1 -1 -1 -1 -1 -1 -1 -1 -1 -1 -1 -1 -1 -1 -1 -1 -1 -1 -1 -1 -1 -1 -1 -1 -1 -1 -1 -1 -1 -1 -1 -1 -1 -1 -1 -1 -1 -1 -1 -1 -1 -1 -1 -1 -1 -1 -1 -1 -1 -1 -1 -1 -1 -1 -1 -1 -1 -1 -1 -1 -1 -1 -1 -1 -1 -1 -1 -1 -1 -1 -1 -1 -1 -1 -1 -1 -1 -1 -1 -1 -1 -1 -1 -1 -1 -1 -1 -1 -1 -1 -1 -1 -1 -1 


