# vtk DataFile Version 3.0
Triangulation generated with deal.II
ASCII
DATASET UNSTRUCTURED_GRID
POINTS 16 double
300 0 0
300 300 0
1.83697e-14 300 0
-300 300 0
-300 3.67394e-14 0
-300 -300 0
-5.51091e-14 -300 0
300 -300 0
90.35 0 0
63.8871 63.8871 0
5.53234e-15 90.35 0
-63.8871 63.8871 0
-90.35 1.10647e-14 0
-63.8871 -63.8871 0
-1.6597e-14 -90.35 0
63.8871 -63.8871 0

CELLS 16 64
4 0 1 9 8
4 1 2 10 9
4 2 3 11 10
4 3 4 12 11
4 4 5 13 12
4 5 6 14 13
4 6 7 15 14
4 7 0 8 15
2 8 9
2 9 10
2 10 11
2 11 12
2 12 13
2 13 14
2 14 15
2 15 8

CELL_TYPES 16
9 9 9 9 9 9 9 9 
3 3 3 3 3 3 3 3 


CELL_DATA 16
SCALARS MaterialID int 1
LOOKUP_TABLE default
0 0 0 0 0 0 0 0 
1 1 1 1 1 1 1 1 


SCALARS ManifoldID int 1
LOOKUP_TABLE default
-1 -1 -1 -1 -1 -1 -1 -1 
0 0 0 0 0 0 0 0 

