# vtk DataFile Version 3.0
Triangulation generated with deal.II
ASCII
DATASET UNSTRUCTURED_GRID
POINTS 208 double
0 0 0
100 0 0
200 0 0
300 0 0
400 0 0
500 0 0
600 0 0
700 0 0
800 0 0
900 0 0
1000 0 0
0 100 0
100 100 0
200 100 0
300 100 0
400 100 0
500 100 0
600 100 0
700 100 0
800 100 0
900 100 0
1000 100 0
0 200 0
100 200 0
200 200 0
300 200 0
400 200 0
500 200 0
600 200 0
700 200 0
800 200 0
900 200 0
1000 200 0
0 300 0
100 300 0
200 300 0
300 300 0
400 300 0
500 300 0
600 300 0
700 300 0
800 300 0
900 300 0
1000 300 0
0 400 0
100 400 0
200 400 0
300 400 0
400 400 0
500 400 0
600 400 0
700 400 0
800 400 0
900 400 0
1000 400 0
0 500 0
100 500 0
200 500 0
300 500 0
400 500 0
600 500 0
700 500 0
800 500 0
900 500 0
1000 500 0
0 600 0
100 600 0
200 600 0
300 600 0
400 600 0
500 600 0
600 600 0
700 600 0
800 600 0
900 600 0
1000 600 0
0 700 0
100 700 0
200 700 0
300 700 0
400 700 0
500 700 0
600 700 0
700 700 0
800 700 0
900 700 0
1000 700 0
0 800 0
100 800 0
200 800 0
300 800 0
400 800 0
500 800 0
600 800 0
700 800 0
800 800 0
900 800 0
1000 800 0
0 900 0
100 900 0
200 900 0
300 900 0
400 900 0
500 900 0
600 900 0
700 900 0
800 900 0
900 900 0
1000 900 0
0 1000 0
100 1000 0
200 1000 0
300 1000 0
400 1000 0
500 1000 0
600 1000 0
700 1000 0
800 1000 0
900 1000 0
1000 1000 0
580.35 500 0
556.816 556.816 0
500 580.35 0
443.184 556.816 0
419.65 500 0
443.184 443.184 0
500 419.65 0
556.816 443.184 0
563.971 500 0
545.234 545.234 0
500 563.971 0
454.766 545.234 0
436.029 500 0
454.766 454.766 0
500 436.029 0
545.234 454.766 0
548.82 500 0
534.521 534.521 0
500 548.82 0
465.479 534.521 0
451.18 500 0
465.479 465.479 0
500 451.18 0
534.521 465.479 0
535.783 500 0
525.302 525.302 0
500 535.783 0
474.698 525.302 0
464.217 500 0
474.698 474.698 0
500 464.217 0
525.302 474.698 0
525.245 500 0
517.851 517.851 0
500 525.245 0
482.149 517.851 0
474.755 500 0
482.149 482.149 0
500 474.755 0
517.851 482.149 0
517.149 500 0
512.126 512.126 0
500 517.149 0
487.874 512.126 0
482.851 500 0
487.874 487.874 0
500 482.851 0
512.126 487.874 0
511.169 500 0
507.898 507.898 0
500 511.169 0
492.102 507.898 0
488.831 500 0
492.102 492.102 0
500 488.831 0
507.898 492.102 0
506.879 500 0
504.864 504.864 0
500 506.879 0
495.136 504.864 0
493.121 500 0
495.136 495.136 0
500 493.121 0
504.864 495.136 0
503.865 500 0
502.733 502.733 0
500 503.865 0
497.267 502.733 0
496.135 500 0
497.267 497.267 0
500 496.135 0
502.733 497.267 0
501.779 500 0
501.258 501.258 0
500 501.779 0
498.742 501.258 0
498.221 500 0
498.742 498.742 0
500 498.221 0
501.258 498.742 0
500.35 500 0
500.247 500.247 0
500 500.35 0
499.753 500.247 0
499.65 500 0
499.753 499.753 0
500 499.65 0
500.247 499.753 0

CELLS 360 1448
4 12 11 0 1
4 13 12 1 2
4 14 13 2 3
4 15 14 3 4
4 16 15 4 5
4 17 16 5 6
4 18 17 6 7
4 19 18 7 8
4 20 19 8 9
4 21 20 9 10
4 23 22 11 12
4 24 23 12 13
4 25 24 13 14
4 26 25 14 15
4 27 26 15 16
4 28 27 16 17
4 29 28 17 18
4 30 29 18 19
4 31 30 19 20
4 32 31 20 21
4 34 33 22 23
4 35 34 23 24
4 36 35 24 25
4 37 36 25 26
4 38 37 26 27
4 39 38 27 28
4 40 39 28 29
4 41 40 29 30
4 42 41 30 31
4 43 42 31 32
4 45 44 33 34
4 46 45 34 35
4 47 46 35 36
4 48 47 36 37
4 49 48 37 38
4 50 49 38 39
4 51 50 39 40
4 52 51 40 41
4 53 52 41 42
4 54 53 42 43
4 56 55 44 45
4 57 56 45 46
4 58 57 46 47
4 59 58 47 48
4 61 60 50 51
4 62 61 51 52
4 63 62 52 53
4 64 63 53 54
4 66 65 55 56
4 67 66 56 57
4 68 67 57 58
4 69 68 58 59
4 72 71 60 61
4 73 72 61 62
4 74 73 62 63
4 75 74 63 64
4 77 76 65 66
4 78 77 66 67
4 79 78 67 68
4 80 79 68 69
4 81 80 69 70
4 82 81 70 71
4 83 82 71 72
4 84 83 72 73
4 85 84 73 74
4 86 85 74 75
4 88 87 76 77
4 89 88 77 78
4 90 89 78 79
4 91 90 79 80
4 92 91 80 81
4 93 92 81 82
4 94 93 82 83
4 95 94 83 84
4 96 95 84 85
4 97 96 85 86
4 99 98 87 88
4 100 99 88 89
4 101 100 89 90
4 102 101 90 91
4 103 102 91 92
4 104 103 92 93
4 105 104 93 94
4 106 105 94 95
4 107 106 95 96
4 108 107 96 97
4 110 109 98 99
4 111 110 99 100
4 112 111 100 101
4 113 112 101 102
4 114 113 102 103
4 115 114 103 104
4 116 115 104 105
4 117 116 105 106
4 118 117 106 107
4 119 118 107 108
4 129 128 120 121
4 129 121 122 130
4 130 122 123 131
4 131 123 124 132
4 132 124 125 133
4 134 133 125 126
4 135 134 126 127
4 128 135 127 120
4 137 136 128 129
4 137 129 130 138
4 138 130 131 139
4 139 131 132 140
4 140 132 133 141
4 142 141 133 134
4 143 142 134 135
4 136 143 135 128
4 145 144 136 137
4 145 137 138 146
4 146 138 139 147
4 147 139 140 148
4 148 140 141 149
4 150 149 141 142
4 151 150 142 143
4 144 151 143 136
4 153 152 144 145
4 153 145 146 154
4 154 146 147 155
4 155 147 148 156
4 156 148 149 157
4 158 157 149 150
4 159 158 150 151
4 152 159 151 144
4 161 160 152 153
4 161 153 154 162
4 162 154 155 163
4 163 155 156 164
4 164 156 157 165
4 166 165 157 158
4 167 166 158 159
4 160 167 159 152
4 169 168 160 161
4 169 161 162 170
4 170 162 163 171
4 171 163 164 172
4 172 164 165 173
4 174 173 165 166
4 175 174 166 167
4 168 175 167 160
4 177 176 168 169
4 177 169 170 178
4 178 170 171 179
4 179 171 172 180
4 180 172 173 181
4 182 181 173 174
4 183 182 174 175
4 176 183 175 168
4 185 184 176 177
4 185 177 178 186
4 186 178 179 187
4 187 179 180 188
4 188 180 181 189
4 190 189 181 182
4 191 190 182 183
4 184 191 183 176
4 193 192 184 185
4 193 185 186 194
4 194 186 187 195
4 195 187 188 196
4 196 188 189 197
4 198 197 189 190
4 199 198 190 191
4 192 199 191 184
4 201 200 192 193
4 201 193 194 202
4 202 194 195 203
4 203 195 196 204
4 204 196 197 205
4 206 205 197 198
4 207 206 198 199
4 200 207 199 192
4 121 120 60 71
4 121 71 70 122
4 122 70 69 123
4 123 69 59 124
4 124 59 48 125
4 126 125 48 49
4 127 126 49 50
4 120 127 50 60
2 120 60
2 120 127
2 121 71
2 121 120
2 121 122
2 122 70
2 122 123
2 123 69
2 123 124
2 124 59
2 124 125
2 125 48
2 126 49
2 126 125
2 127 50
2 127 126
2 128 120
2 128 135
2 129 121
2 129 128
2 129 130
2 130 122
2 130 131
2 131 123
2 131 132
2 132 124
2 132 133
2 133 125
2 134 126
2 134 133
2 135 127
2 135 134
2 136 128
2 136 143
2 137 129
2 137 136
2 137 138
2 138 130
2 138 139
2 139 131
2 139 140
2 140 132
2 140 141
2 141 133
2 142 134
2 142 141
2 143 135
2 143 142
2 144 136
2 144 151
2 145 137
2 145 144
2 145 146
2 146 138
2 146 147
2 147 139
2 147 148
2 148 140
2 148 149
2 149 141
2 150 142
2 150 149
2 151 143
2 151 150
2 152 144
2 152 159
2 153 145
2 153 152
2 153 154
2 154 146
2 154 155
2 155 147
2 155 156
2 156 148
2 156 157
2 157 149
2 158 150
2 158 157
2 159 151
2 159 158
2 160 152
2 160 167
2 161 153
2 161 160
2 161 162
2 162 154
2 162 163
2 163 155
2 163 164
2 164 156
2 164 165
2 165 157
2 166 158
2 166 165
2 167 159
2 167 166
2 168 160
2 168 175
2 169 161
2 169 168
2 169 170
2 170 162
2 170 171
2 171 163
2 171 172
2 172 164
2 172 173
2 173 165
2 174 166
2 174 173
2 175 167
2 175 174
2 176 168
2 176 183
2 177 169
2 177 176
2 177 178
2 178 170
2 178 179
2 179 171
2 179 180
2 180 172
2 180 181
2 181 173
2 182 174
2 182 181
2 183 175
2 183 182
2 184 176
2 184 191
2 185 177
2 185 184
2 185 186
2 186 178
2 186 187
2 187 179
2 187 188
2 188 180
2 188 189
2 189 181
2 190 182
2 190 189
2 191 183
2 191 190
2 192 184
2 192 199
2 193 185
2 193 192
2 193 194
2 194 186
2 194 195
2 195 187
2 195 196
2 196 188
2 196 197
2 197 189
2 198 190
2 198 197
2 199 191
2 199 198
2 200 192
2 200 207
2 201 193
2 201 200
2 201 202
2 202 194
2 202 203
2 203 195
2 203 204
2 204 196
2 204 205
2 205 197
2 206 198
2 206 205
2 207 199
2 207 206

CELL_TYPES 360
9 9 9 9 9 9 9 9 9 9 9 9 9 9 9 9 9 9 9 9 9 9 9 9 9 9 9 9 9 9 9 9 9 9 9 9 9 9 9 9 9 9 9 9 9 9 9 9 9 9 9 9 9 9 9 9 9 9 9 9 9 9 9 9 9 9 9 9 9 9 9 9 9 9 9 9 9 9 9 9 9 9 9 9 9 9 9 9 9 9 9 9 9 9 9 9 9 9 9 9 9 9 9 9 9 9 9 9 9 9 9 9 9 9 9 9 9 9 9 9 9 9 9 9 9 9 9 9 9 9 9 9 9 9 9 9 9 9 9 9 9 9 9 9 9 9 9 9 9 9 9 9 9 9 9 9 9 9 9 9 9 9 9 9 9 9 9 9 9 9 9 9 9 9 9 9 9 9 9 9 9 9 9 9 
3 3 3 3 3 3 3 3 3 3 3 3 3 3 3 3 3 3 3 3 3 3 3 3 3 3 3 3 3 3 3 3 3 3 3 3 3 3 3 3 3 3 3 3 3 3 3 3 3 3 3 3 3 3 3 3 3 3 3 3 3 3 3 3 3 3 3 3 3 3 3 3 3 3 3 3 3 3 3 3 3 3 3 3 3 3 3 3 3 3 3 3 3 3 3 3 3 3 3 3 3 3 3 3 3 3 3 3 3 3 3 3 3 3 3 3 3 3 3 3 3 3 3 3 3 3 3 3 3 3 3 3 3 3 3 3 3 3 3 3 3 3 3 3 3 3 3 3 3 3 3 3 3 3 3 3 3 3 3 3 3 3 3 3 3 3 3 3 3 3 3 3 3 3 3 3 


CELL_DATA 360
SCALARS MaterialID int 1
LOOKUP_TABLE default
0 0 0 0 0 0 0 0 0 0 0 0 0 0 0 0 0 0 0 0 0 0 0 0 0 0 0 0 0 0 0 0 0 0 0 0 0 0 0 0 0 0 0 0 0 0 0 0 0 0 0 0 0 0 0 0 0 0 0 0 0 0 0 0 0 0 0 0 0 0 0 0 0 0 0 0 0 0 0 0 0 0 0 0 0 0 0 0 0 0 0 0 0 0 0 0 0 0 0 0 0 0 0 0 0 0 0 0 0 0 0 0 0 0 0 0 0 0 0 0 0 0 0 0 0 0 0 0 0 0 0 0 0 0 0 0 0 0 0 0 0 0 0 0 0 0 0 0 0 0 0 0 0 0 0 0 0 0 0 0 0 0 0 0 0 0 0 0 0 0 0 0 0 0 0 0 0 0 0 0 0 0 0 0 
-1 -1 -1 -1 -1 -1 -1 -1 -1 -1 -1 -1 -1 -1 -1 -1 -1 -1 -1 -1 -1 -1 -1 -1 -1 -1 -1 -1 -1 -1 -1 -1 -1 -1 -1 -1 -1 -1 -1 -1 -1 -1 -1 -1 -1 -1 -1 -1 -1 -1 -1 -1 -1 -1 -1 -1 -1 -1 -1 -1 -1 -1 -1 -1 -1 -1 -1 -1 -1 -1 -1 -1 -1 -1 -1 -1 -1 -1 -1 -1 -1 -1 -1 -1 -1 -1 -1 -1 -1 -1 -1 -1 -1 -1 -1 -1 -1 -1 -1 -1 -1 -1 -1 -1 -1 -1 -1 -1 -1 -1 -1 -1 -1 -1 -1 -1 -1 -1 -1 -1 -1 -1 -1 -1 -1 -1 -1 -1 -1 -1 -1 -1 -1 -1 -1 -1 -1 -1 -1 -1 -1 -1 -1 -1 -1 -1 -1 -1 -1 -1 -1 -1 -1 -1 -1 -1 -1 -1 -1 -1 -1 0 -1 0 0 -1 0 -1 0 -1 0 -1 -1 0 -1 0 


SCALARS ManifoldID int 1
LOOKUP_TABLE default
-1 -1 -1 -1 -1 -1 -1 -1 -1 -1 -1 -1 -1 -1 -1 -1 -1 -1 -1 -1 -1 -1 -1 -1 -1 -1 -1 -1 -1 -1 -1 -1 -1 -1 -1 -1 -1 -1 -1 -1 -1 -1 -1 -1 -1 -1 -1 -1 -1 -1 -1 -1 -1 -1 -1 -1 -1 -1 -1 -1 -1 -1 -1 -1 -1 -1 -1 -1 -1 -1 -1 -1 -1 -1 -1 -1 -1 -1 -1 -1 -1 -1 -1 -1 -1 -1 -1 -1 -1 -1 -1 -1 -1 -1 -1 -1 0 0 0 0 0 0 0 0 0 0 0 0 0 0 0 0 0 0 0 0 0 0 0 0 0 0 0 0 0 0 0 0 0 0 0 0 0 0 0 0 0 0 0 0 0 0 0 0 0 0 0 0 0 0 0 0 0 0 0 0 0 0 0 0 0 0 0 0 0 0 0 0 0 0 0 0 0 0 0 0 1 1 1 1 1 1 1 1 
1 0 1 0 0 1 0 1 0 1 0 1 1 0 1 0 0 0 0 0 0 0 0 0 0 0 0 0 0 0 0 0 0 0 0 0 0 0 0 0 0 0 0 0 0 0 0 0 0 0 0 0 0 0 0 0 0 0 0 0 0 0 0 0 0 0 0 0 0 0 0 0 0 0 0 0 0 0 0 0 0 0 0 0 0 0 0 0 0 0 0 0 0 0 0 0 0 0 0 0 0 0 0 0 0 0 0 0 0 0 0 0 0 0 0 0 0 0 0 0 0 0 0 0 0 0 0 0 0 0 0 0 0 0 0 0 0 0 0 0 0 0 0 0 0 0 0 0 0 0 0 0 0 0 0 0 0 0 0 0 0 0 0 0 0 0 0 0 0 0 0 0 0 0 0 0 

