# vtk DataFile Version 3.0
Triangulation generated with deal.II
ASCII
DATASET UNSTRUCTURED_GRID
POINTS 111 double
0 0 0
100 0 0
200 0 0
300 0 0
400 0 0
500 0 0
600 0 0
700 0 0
800 0 0
900 0 0
1000 0 0
0 100 0
100 100 0
200 100 0
300 100 0
400 100 0
500 100 0
600 100 0
700 100 0
800 100 0
900 100 0
1000 100 0
0 200 0
100 200 0
500 200 0
600 200 0
700 200 0
900 200 0
1000 200 0
0 300 0
100 300 0
200 300 0
300 300 0
400 300 0
500 300 0
600 300 0
700 300 0
800 300 0
900 300 0
1000 300 0
0 400 0
100 400 0
200 400 0
300 400 0
400 400 0
500 400 0
600 400 0
700 400 0
800 400 0
900 400 0
1000 400 0
0 500 0
100 500 0
300 500 0
400 500 0
600 500 0
700 500 0
900 500 0
1000 500 0
0 600 0
100 600 0
200 600 0
300 600 0
400 600 0
500 600 0
600 600 0
700 600 0
800 600 0
900 600 0
1000 600 0
0 700 0
100 700 0
200 700 0
300 700 0
400 700 0
500 700 0
600 700 0
700 700 0
800 700 0
900 700 0
1000 700 0
0 800 0
100 800 0
300 800 0
400 800 0
600 800 0
700 800 0
900 800 0
1000 800 0
0 900 0
100 900 0
200 900 0
300 900 0
400 900 0
500 900 0
600 900 0
700 900 0
800 900 0
900 900 0
1000 900 0
0 1000 0
100 1000 0
200 1000 0
300 1000 0
400 1000 0
500 1000 0
600 1000 0
700 1000 0
800 1000 0
900 1000 0
1000 1000 0

CELLS 64 320
4 0 1 12 11
4 1 2 13 12
4 2 3 14 13
4 3 4 15 14
4 4 5 16 15
4 5 6 17 16
4 6 7 18 17
4 7 8 19 18
4 8 9 20 19
4 9 10 21 20
4 11 12 23 22
4 16 17 25 24
4 17 18 26 25
4 20 21 28 27
4 22 23 30 29
4 24 25 35 34
4 25 26 36 35
4 27 28 39 38
4 29 30 41 40
4 30 31 42 41
4 31 32 43 42
4 32 33 44 43
4 33 34 45 44
4 34 35 46 45
4 35 36 47 46
4 36 37 48 47
4 37 38 49 48
4 38 39 50 49
4 40 41 52 51
4 43 44 54 53
4 46 47 56 55
4 49 50 58 57
4 51 52 60 59
4 53 54 63 62
4 55 56 66 65
4 57 58 69 68
4 59 60 71 70
4 60 61 72 71
4 61 62 73 72
4 62 63 74 73
4 63 64 75 74
4 64 65 76 75
4 65 66 77 76
4 66 67 78 77
4 67 68 79 78
4 68 69 80 79
4 70 71 82 81
4 73 74 84 83
4 76 77 86 85
4 79 80 88 87
4 81 82 90 89
4 83 84 93 92
4 85 86 96 95
4 87 88 99 98
4 89 90 101 100
4 90 91 102 101
4 91 92 103 102
4 92 93 104 103
4 93 94 105 104
4 94 95 106 105
4 95 96 107 106
4 96 97 108 107
4 97 98 109 108
4 98 99 110 109

CELL_TYPES 64
9 9 9 9 9 9 9 9 9 9 9 9 9 9 9 9 9 9 9 9 9 9 9 9 9 9 9 9 9 9 9 9 9 9 9 9 9 9 9 9 9 9 9 9 9 9 9 9 9 9 9 9 9 9 9 9 9 9 9 9 9 9 9 9 



CELL_DATA 64
SCALARS MaterialID int 1
LOOKUP_TABLE default
0 0 0 0 0 0 0 0 0 0 0 0 0 0 0 0 0 0 0 0 0 0 0 0 0 0 0 0 0 0 0 0 0 0 0 0 0 0 0 0 0 0 0 0 0 0 0 0 0 0 0 0 0 0 0 0 0 0 0 0 0 0 0 0 



SCALARS ManifoldID int 1
LOOKUP_TABLE default
-1 -1 -1 -1 -1 -1 -1 -1 -1 -1 -1 -1 -1 -1 -1 -1 -1 -1 -1 -1 -1 -1 -1 -1 -1 -1 -1 -1 -1 -1 -1 -1 -1 -1 -1 -1 -1 -1 -1 -1 -1 -1 -1 -1 -1 -1 -1 -1 -1 -1 -1 -1 -1 -1 -1 -1 -1 -1 -1 -1 -1 -1 -1 -1 


