# vtk DataFile Version 3.0
Triangulation generated with deal.II
ASCII
DATASET UNSTRUCTURED_GRID
POINTS 24 double
0.08 0 0
0.0565685 0.0565685 0
4.89859e-18 0.08 0
-0.0565685 0.0565685 0
-0.08 9.79717e-18 0
-0.0565685 -0.0565685 0
-1.46958e-17 -0.08 0
0.0565685 -0.0565685 0
0.0562996 0 0
0.0398098 0.0398098 0
3.44736e-18 0.0562996 0
-0.0398098 0.0398098 0
-0.0562996 6.89471e-18 0
-0.0398098 -0.0398098 0
-1.03421e-17 -0.0562996 0
0.0398098 -0.0398098 0
0.05 0 0
0.0353553 0.0353553 0
3.06162e-18 0.05 0
-0.0353553 0.0353553 0
-0.05 6.12323e-18 0
-0.0353553 -0.0353553 0
-9.18485e-18 -0.05 0
0.0353553 -0.0353553 0

CELLS 56 200
4 0 1 9 8
4 1 2 10 9
4 2 3 11 10
4 3 4 12 11
4 4 5 13 12
4 5 6 14 13
4 6 7 15 14
4 7 0 8 15
4 8 9 17 16
4 9 10 18 17
4 10 11 19 18
4 11 12 20 19
4 12 13 21 20
4 13 14 22 21
4 14 15 23 22
4 15 8 16 23
2 0 1
2 0 8
2 1 2
2 1 9
2 2 3
2 2 10
2 3 4
2 3 11
2 4 5
2 4 12
2 5 6
2 5 13
2 6 7
2 6 14
2 7 0
2 7 15
2 8 9
2 8 16
2 9 10
2 9 17
2 10 11
2 10 18
2 11 12
2 11 19
2 12 13
2 12 20
2 13 14
2 13 21
2 14 15
2 14 22
2 15 8
2 15 23
2 16 17
2 17 18
2 18 19
2 19 20
2 20 21
2 21 22
2 22 23
2 23 16

CELL_TYPES 56
9 9 9 9 9 9 9 9 9 9 9 9 9 9 9 9 
3 3 3 3 3 3 3 3 3 3 3 3 3 3 3 3 3 3 3 3 3 3 3 3 3 3 3 3 3 3 3 3 3 3 3 3 3 3 3 3 


CELL_DATA 56
SCALARS MaterialID int 1
LOOKUP_TABLE default
0 0 0 0 0 0 0 0 0 0 0 0 0 0 0 0 
0 -1 0 -1 0 -1 0 -1 0 -1 0 -1 0 -1 0 -1 -1 -1 -1 -1 -1 -1 -1 -1 -1 -1 -1 -1 -1 -1 -1 -1 0 0 0 0 0 0 0 0 


SCALARS ManifoldID int 1
LOOKUP_TABLE default
0 0 0 0 0 0 0 0 0 0 0 0 0 0 0 0 
0 0 0 0 0 0 0 0 0 0 0 0 0 0 0 0 0 0 0 0 0 0 0 0 0 0 0 0 0 0 0 0 0 0 0 0 0 0 0 0 

