# vtk DataFile Version 3.0
Triangulation generated with deal.II
ASCII
DATASET UNSTRUCTURED_GRID
POINTS 32 double
0.28 0.205 0
0.256569 0.261569 0
0.2 0.285 0
0.143431 0.261569 0
0.12 0.205 0
0.143431 0.148431 0
0.2 0.125 0
0.256569 0.148431 0
0.2563 0.205 0
0.23981 0.24481 0
0.2 0.2613 0
0.16019 0.24481 0
0.1437 0.205 0
0.16019 0.16519 0
0.2 0.1487 0
0.23981 0.16519 0
0.25 0.205 0
0.235355 0.240355 0
0.2 0.255 0
0.164645 0.240355 0
0.15 0.205 0
0.164645 0.169645 0
0.2 0.155 0
0.235355 0.169645 0
0.3 0.205 0
0.3 0.3075 0
0.2 0.3075 0
0.1 0.3075 0
0.1 0.205 0
0.1 0.1025 0
0.2 0.1025 0
0.3 0.1025 0

CELLS 72 264
4 0 1 9 8
4 1 2 10 9
4 2 3 11 10
4 3 4 12 11
4 4 5 13 12
4 5 6 14 13
4 6 7 15 14
4 7 0 8 15
4 8 9 17 16
4 9 10 18 17
4 10 11 19 18
4 11 12 20 19
4 12 13 21 20
4 13 14 22 21
4 14 15 23 22
4 15 8 16 23
4 24 25 1 0
4 25 26 2 1
4 26 27 3 2
4 27 28 4 3
4 28 29 5 4
4 29 30 6 5
4 30 31 7 6
4 31 24 0 7
2 0 1
2 0 8
2 1 2
2 1 9
2 2 3
2 2 10
2 3 4
2 3 11
2 4 5
2 4 12
2 5 6
2 5 13
2 6 7
2 6 14
2 7 0
2 7 15
2 8 9
2 8 16
2 9 10
2 9 17
2 10 11
2 10 18
2 11 12
2 11 19
2 12 13
2 12 20
2 13 14
2 13 21
2 14 15
2 14 22
2 15 8
2 15 23
2 16 17
2 17 18
2 18 19
2 19 20
2 20 21
2 21 22
2 22 23
2 23 16
2 24 0
2 25 1
2 26 2
2 27 3
2 28 4
2 29 5
2 30 6
2 31 7

CELL_TYPES 72
9 9 9 9 9 9 9 9 9 9 9 9 9 9 9 9 9 9 9 9 9 9 9 9 
3 3 3 3 3 3 3 3 3 3 3 3 3 3 3 3 3 3 3 3 3 3 3 3 3 3 3 3 3 3 3 3 3 3 3 3 3 3 3 3 3 3 3 3 3 3 3 3 


CELL_DATA 72
SCALARS MaterialID int 1
LOOKUP_TABLE default
0 0 0 0 0 0 0 0 0 0 0 0 0 0 0 0 0 0 0 0 0 0 0 0 
-1 -1 -1 -1 -1 -1 -1 -1 -1 -1 -1 -1 -1 -1 -1 -1 -1 -1 -1 -1 -1 -1 -1 -1 -1 -1 -1 -1 -1 -1 -1 -1 0 0 0 0 0 0 0 0 -1 -1 -1 -1 -1 -1 -1 -1 


SCALARS ManifoldID int 1
LOOKUP_TABLE default
0 0 0 0 0 0 0 0 0 0 0 0 0 0 0 0 1 1 1 1 1 1 1 1 
0 0 0 0 0 0 0 0 0 0 0 0 0 0 0 0 0 0 0 0 0 0 0 0 0 0 0 0 0 0 0 0 0 0 0 0 0 0 0 0 1 1 1 1 1 1 1 1 

