# vtk DataFile Version 3.0
Triangulation generated with deal.II
ASCII
DATASET UNSTRUCTURED_GRID
POINTS 138 double
0 0 0
0.1 0 0
0.2 0 0
0.3 0 0
0.4 0 0
0.5 0 0
0.6 0 0
0.7 0 0
0.8 0 0
0.9 0 0
1 0 0
1.1 0 0
1.2 0 0
1.3 0 0
1.4 0 0
1.5 0 0
1.6 0 0
1.7 0 0
1.8 0 0
1.9 0 0
2 0 0
2.1 0 0
2.2 0 0
0 0.1025 0
0.1 0.1025 0
0.2 0.1025 0
0.3 0.1025 0
0.4 0.1025 0
0.5 0.1025 0
0.6 0.1025 0
0.7 0.1025 0
0.8 0.1025 0
0.9 0.1025 0
1 0.1025 0
1.1 0.1025 0
1.2 0.1025 0
1.3 0.1025 0
1.4 0.1025 0
1.5 0.1025 0
1.6 0.1025 0
1.7 0.1025 0
1.8 0.1025 0
1.9 0.1025 0
2 0.1025 0
2.1 0.1025 0
2.2 0.1025 0
0 0.205 0
0.1 0.205 0
0.3 0.205 0
0.4 0.205 0
0.5 0.205 0
0.6 0.205 0
0.7 0.205 0
0.8 0.205 0
0.9 0.205 0
1 0.205 0
1.1 0.205 0
1.2 0.205 0
1.3 0.205 0
1.4 0.205 0
1.5 0.205 0
1.6 0.205 0
1.7 0.205 0
1.8 0.205 0
1.9 0.205 0
2 0.205 0
2.1 0.205 0
2.2 0.205 0
0 0.3075 0
0.1 0.3075 0
0.2 0.3075 0
0.3 0.3075 0
0.4 0.3075 0
0.5 0.3075 0
0.6 0.3075 0
0.7 0.3075 0
0.8 0.3075 0
0.9 0.3075 0
1 0.3075 0
1.1 0.3075 0
1.2 0.3075 0
1.3 0.3075 0
1.4 0.3075 0
1.5 0.3075 0
1.6 0.3075 0
1.7 0.3075 0
1.8 0.3075 0
1.9 0.3075 0
2 0.3075 0
2.1 0.3075 0
2.2 0.3075 0
0 0.41 0
0.1 0.41 0
0.2 0.41 0
0.3 0.41 0
0.4 0.41 0
0.5 0.41 0
0.6 0.41 0
0.7 0.41 0
0.8 0.41 0
0.9 0.41 0
1 0.41 0
1.1 0.41 0
1.2 0.41 0
1.3 0.41 0
1.4 0.41 0
1.5 0.41 0
1.6 0.41 0
1.7 0.41 0
1.8 0.41 0
1.9 0.41 0
2 0.41 0
2.1 0.41 0
2.2 0.41 0
0.28 0.205 0
0.256569 0.261569 0
0.2 0.285 0
0.143431 0.261569 0
0.12 0.205 0
0.143431 0.148431 0
0.2 0.125 0
0.256569 0.148431 0
0.2563 0.205 0
0.23981 0.24481 0
0.2 0.2613 0
0.16019 0.24481 0
0.1437 0.205 0
0.16019 0.16519 0
0.2 0.1487 0
0.23981 0.16519 0
0.25 0.205 0
0.235355 0.240355 0
0.2 0.255 0
0.164645 0.240355 0
0.15 0.205 0
0.164645 0.169645 0
0.2 0.155 0
0.235355 0.169645 0

CELLS 156 684
4 24 23 0 1
4 25 24 1 2
4 26 25 2 3
4 27 26 3 4
4 28 27 4 5
4 29 28 5 6
4 30 29 6 7
4 31 30 7 8
4 32 31 8 9
4 33 32 9 10
4 34 33 10 11
4 35 34 11 12
4 36 35 12 13
4 37 36 13 14
4 38 37 14 15
4 39 38 15 16
4 40 39 16 17
4 41 40 17 18
4 42 41 18 19
4 43 42 19 20
4 44 43 20 21
4 45 44 21 22
4 47 46 23 24
4 49 48 26 27
4 50 49 27 28
4 51 50 28 29
4 52 51 29 30
4 53 52 30 31
4 54 53 31 32
4 55 54 32 33
4 56 55 33 34
4 57 56 34 35
4 58 57 35 36
4 59 58 36 37
4 60 59 37 38
4 61 60 38 39
4 62 61 39 40
4 63 62 40 41
4 64 63 41 42
4 65 64 42 43
4 66 65 43 44
4 67 66 44 45
4 69 68 46 47
4 72 71 48 49
4 73 72 49 50
4 74 73 50 51
4 75 74 51 52
4 76 75 52 53
4 77 76 53 54
4 78 77 54 55
4 79 78 55 56
4 80 79 56 57
4 81 80 57 58
4 82 81 58 59
4 83 82 59 60
4 84 83 60 61
4 85 84 61 62
4 86 85 62 63
4 87 86 63 64
4 88 87 64 65
4 89 88 65 66
4 90 89 66 67
4 92 91 68 69
4 93 92 69 70
4 94 93 70 71
4 95 94 71 72
4 96 95 72 73
4 97 96 73 74
4 98 97 74 75
4 99 98 75 76
4 100 99 76 77
4 101 100 77 78
4 102 101 78 79
4 103 102 79 80
4 104 103 80 81
4 105 104 81 82
4 106 105 82 83
4 107 106 83 84
4 108 107 84 85
4 109 108 85 86
4 110 109 86 87
4 111 110 87 88
4 112 111 88 89
4 113 112 89 90
4 123 122 114 115
4 123 115 116 124
4 124 116 117 125
4 125 117 118 126
4 126 118 119 127
4 128 127 119 120
4 129 128 120 121
4 122 129 121 114
4 131 130 122 123
4 131 123 124 132
4 132 124 125 133
4 133 125 126 134
4 134 126 127 135
4 136 135 127 128
4 137 136 128 129
4 130 137 129 122
4 115 114 48 71
4 115 71 70 116
4 116 70 69 117
4 117 69 47 118
4 118 47 24 119
4 120 119 24 25
4 121 120 25 26
4 114 121 26 48
2 114 48
2 114 121
2 115 71
2 115 114
2 115 116
2 116 70
2 116 117
2 117 69
2 117 118
2 118 47
2 118 119
2 119 24
2 120 25
2 120 119
2 121 26
2 121 120
2 122 114
2 122 129
2 123 115
2 123 122
2 123 124
2 124 116
2 124 125
2 125 117
2 125 126
2 126 118
2 126 127
2 127 119
2 128 120
2 128 127
2 129 121
2 129 128
2 130 122
2 130 137
2 131 123
2 131 130
2 131 132
2 132 124
2 132 133
2 133 125
2 133 134
2 134 126
2 134 135
2 135 127
2 136 128
2 136 135
2 137 129
2 137 136

CELL_TYPES 156
9 9 9 9 9 9 9 9 9 9 9 9 9 9 9 9 9 9 9 9 9 9 9 9 9 9 9 9 9 9 9 9 9 9 9 9 9 9 9 9 9 9 9 9 9 9 9 9 9 9 9 9 9 9 9 9 9 9 9 9 9 9 9 9 9 9 9 9 9 9 9 9 9 9 9 9 9 9 9 9 9 9 9 9 9 9 9 9 9 9 9 9 9 9 9 9 9 9 9 9 9 9 9 9 9 9 9 9 
3 3 3 3 3 3 3 3 3 3 3 3 3 3 3 3 3 3 3 3 3 3 3 3 3 3 3 3 3 3 3 3 3 3 3 3 3 3 3 3 3 3 3 3 3 3 3 3 


CELL_DATA 156
SCALARS MaterialID int 1
LOOKUP_TABLE default
0 0 0 0 0 0 0 0 0 0 0 0 0 0 0 0 0 0 0 0 0 0 0 0 0 0 0 0 0 0 0 0 0 0 0 0 0 0 0 0 0 0 0 0 0 0 0 0 0 0 0 0 0 0 0 0 0 0 0 0 0 0 0 0 0 0 0 0 0 0 0 0 0 0 0 0 0 0 0 0 0 0 0 0 0 0 0 0 0 0 0 0 0 0 0 0 0 0 0 0 0 0 0 0 0 0 0 0 
-1 -1 -1 -1 -1 -1 -1 -1 -1 -1 -1 -1 -1 -1 -1 -1 -1 -1 -1 -1 -1 -1 -1 -1 -1 -1 -1 -1 -1 -1 -1 -1 -1 0 -1 0 0 -1 0 -1 0 -1 0 -1 -1 0 -1 0 


SCALARS ManifoldID int 1
LOOKUP_TABLE default
-1 -1 -1 -1 -1 -1 -1 -1 -1 -1 -1 -1 -1 -1 -1 -1 -1 -1 -1 -1 -1 -1 -1 -1 -1 -1 -1 -1 -1 -1 -1 -1 -1 -1 -1 -1 -1 -1 -1 -1 -1 -1 -1 -1 -1 -1 -1 -1 -1 -1 -1 -1 -1 -1 -1 -1 -1 -1 -1 -1 -1 -1 -1 -1 -1 -1 -1 -1 -1 -1 -1 -1 -1 -1 -1 -1 -1 -1 -1 -1 -1 -1 -1 -1 0 0 0 0 0 0 0 0 0 0 0 0 0 0 0 0 1 1 1 1 1 1 1 1 
1 0 1 0 0 1 0 1 0 1 0 1 1 0 1 0 0 0 0 0 0 0 0 0 0 0 0 0 0 0 0 0 0 0 0 0 0 0 0 0 0 0 0 0 0 0 0 0 

