# vtk DataFile Version 3.0
Triangulation generated with deal.II
ASCII
DATASET UNSTRUCTURED_GRID
POINTS 16 double
0.1025 0 0
0.1025 0.1025 0
6.27631e-18 0.1025 0
-0.1025 0.1025 0
-0.1025 1.25526e-17 0
-0.1025 -0.1025 0
-1.88289e-17 -0.1025 0
0.1025 -0.1025 0
0.08 0 0
0.0565685 0.0565685 0
4.89859e-18 0.08 0
-0.0565685 0.0565685 0
-0.08 9.79717e-18 0
-0.0565685 -0.0565685 0
-1.46958e-17 -0.08 0
0.0565685 -0.0565685 0

CELLS 16 64
4 0 1 9 8
4 1 2 10 9
4 2 3 11 10
4 3 4 12 11
4 4 5 13 12
4 5 6 14 13
4 6 7 15 14
4 7 0 8 15
2 8 9
2 9 10
2 10 11
2 11 12
2 12 13
2 13 14
2 14 15
2 15 8

CELL_TYPES 16
9 9 9 9 9 9 9 9 
3 3 3 3 3 3 3 3 


CELL_DATA 16
SCALARS MaterialID int 1
LOOKUP_TABLE default
0 0 0 0 0 0 0 0 
1 1 1 1 1 1 1 1 


SCALARS ManifoldID int 1
LOOKUP_TABLE default
-1 -1 -1 -1 -1 -1 -1 -1 
0 0 0 0 0 0 0 0 

